/*--------------------------------*- C++ -*----------------------------------*\
| =========                 |                                                 |
| \\      /  F ield         | OpenFOAM: The Open Source CFD Toolbox           |
|  \\    /   O peration     | Version:  v1806                                 |
|   \\  /    A nd           | Web:      www.OpenFOAM.com                      |
|    \\/     M anipulation  |                                                 |
\*---------------------------------------------------------------------------*/
FoamFile
{
    version     2.0;
    format      ascii;
    class       vectorField;
    location    "0.03";
    object      currentcloudofpoints;
}
// * * * * * * * * * * * * * * * * * * * * * * * * * * * * * * * * * * * * * //


648
(
(0.217916 0.505194 0.05)
(0.699527 0.512327 0.05)
(0.31899 0.569039 0.05)
(0.605306 0.44657 0.05)
(0.228264 0.485347 0.05)
(0.238963 0.467803 0.05)
(0.250084 0.451871 0.05)
(0.261563 0.437327 0.05)
(0.273492 0.423716 0.05)
(0.285509 0.410712 0.05)
(0.297649 0.397884 0.05)
(0.309717 0.384829 0.05)
(0.321752 0.37159 0.05)
(0.333909 0.358038 0.05)
(0.346182 0.344095 0.05)
(0.35872 0.330122 0.05)
(0.371831 0.316047 0.05)
(0.385795 0.302383 0.05)
(0.400757 0.289344 0.05)
(0.417072 0.276819 0.05)
(0.434486 0.265568 0.05)
(0.453027 0.255744 0.05)
(0.473269 0.247382 0.05)
(0.495218 0.240721 0.05)
(0.519045 0.236029 0.05)
(0.545074 0.23396 0.05)
(0.572872 0.235534 0.05)
(0.601335 0.241685 0.05)
(0.62926 0.252636 0.05)
(0.655705 0.268486 0.05)
(0.679428 0.288781 0.05)
(0.699007 0.312737 0.05)
(0.713731 0.33953 0.05)
(0.723354 0.36768 0.05)
(0.727929 0.396105 0.05)
(0.72777 0.423553 0.05)
(0.723897 0.449143 0.05)
(0.717389 0.472444 0.05)
(0.709088 0.493418 0.05)
(0.689262 0.529528 0.05)
(0.678632 0.545401 0.05)
(0.667797 0.560611 0.05)
(0.656394 0.575386 0.05)
(0.644535 0.58984 0.05)
(0.632238 0.60409 0.05)
(0.619878 0.618185 0.05)
(0.607847 0.632036 0.05)
(0.596728 0.645857 0.05)
(0.586924 0.65967 0.05)
(0.578396 0.673801 0.05)
(0.571071 0.688346 0.05)
(0.564003 0.703424 0.05)
(0.556352 0.719041 0.05)
(0.546646 0.734809 0.05)
(0.534241 0.750465 0.05)
(0.518222 0.765282 0.05)
(0.498962 0.778423 0.05)
(0.475235 0.789228 0.05)
(0.448109 0.796571 0.05)
(0.418354 0.799373 0.05)
(0.387051 0.797159 0.05)
(0.356224 0.790277 0.05)
(0.32774 0.77991 0.05)
(0.302247 0.766827 0.05)
(0.279614 0.75158 0.05)
(0.259393 0.734259 0.05)
(0.241481 0.714625 0.05)
(0.226081 0.692005 0.05)
(0.21376 0.666508 0.05)
(0.204729 0.638255 0.05)
(0.199728 0.60878 0.05)
(0.199189 0.579761 0.05)
(0.202609 0.552474 0.05)
(0.2091 0.527573 0.05)
(0.324951 0.556525 0.05)
(0.331898 0.543555 0.05)
(0.339616 0.530136 0.05)
(0.348036 0.516229 0.05)
(0.357076 0.501615 0.05)
(0.366757 0.486305 0.05)
(0.377049 0.470428 0.05)
(0.388161 0.454376 0.05)
(0.400164 0.438553 0.05)
(0.413013 0.423622 0.05)
(0.426609 0.410007 0.05)
(0.44036 0.398058 0.05)
(0.454307 0.387678 0.05)
(0.468017 0.378708 0.05)
(0.480943 0.370849 0.05)
(0.493489 0.363848 0.05)
(0.505589 0.357525 0.05)
(0.517097 0.351765 0.05)
(0.527733 0.346475 0.05)
(0.537791 0.34172 0.05)
(0.54764 0.337567 0.05)
(0.557613 0.334406 0.05)
(0.567986 0.332332 0.05)
(0.578977 0.332088 0.05)
(0.590221 0.33371 0.05)
(0.601471 0.337886 0.05)
(0.611827 0.34477 0.05)
(0.620511 0.353694 0.05)
(0.626901 0.364458 0.05)
(0.630258 0.376351 0.05)
(0.63067 0.388355 0.05)
(0.628591 0.400265 0.05)
(0.624482 0.411813 0.05)
(0.618976 0.423172 0.05)
(0.612484 0.434694 0.05)
(0.597511 0.459251 0.05)
(0.589147 0.472945 0.05)
(0.580542 0.4878 0.05)
(0.571622 0.503282 0.05)
(0.562372 0.519304 0.05)
(0.552252 0.535966 0.05)
(0.541024 0.552521 0.05)
(0.528397 0.568607 0.05)
(0.514593 0.584267 0.05)
(0.500381 0.599242 0.05)
(0.486461 0.613715 0.05)
(0.473318 0.628045 0.05)
(0.461427 0.64178 0.05)
(0.450536 0.654768 0.05)
(0.441275 0.66674 0.05)
(0.432657 0.677597 0.05)
(0.424441 0.687111 0.05)
(0.416651 0.694955 0.05)
(0.408467 0.701018 0.05)
(0.399391 0.705145 0.05)
(0.389397 0.707111 0.05)
(0.378578 0.706894 0.05)
(0.367086 0.704517 0.05)
(0.355473 0.700212 0.05)
(0.344087 0.693955 0.05)
(0.333632 0.685848 0.05)
(0.324729 0.676259 0.05)
(0.317576 0.66536 0.05)
(0.312303 0.653598 0.05)
(0.308922 0.641561 0.05)
(0.30715 0.629356 0.05)
(0.306853 0.617263 0.05)
(0.307919 0.605235 0.05)
(0.3104 0.593274 0.05)
(0.314082 0.581243 0.05)
(0.672876 0.452114 0.05)
(0.264051 0.567466 0.05)
(0.298522 0.516487 0.05)
(0.629939 0.502995 0.05)
(0.337971 0.462092 0.05)
(0.437075 0.345901 0.05)
(0.527776 0.627485 0.05)
(0.385602 0.399511 0.05)
(0.488403 0.686538 0.05)
(0.584457 0.561639 0.05)
(0.488548 0.308477 0.05)
(0.256902 0.637765 0.05)
(0.463781 0.735536 0.05)
(0.687119 0.371957 0.05)
(0.392781 0.755241 0.05)
(0.303442 0.714238 0.05)
(0.547308 0.282521 0.05)
(0.630763 0.296419 0.05)
(0.323135 0.522917 0.05)
(0.308945 0.545456 0.05)
(0.640391 0.444113 0.05)
(0.65457 0.422446 0.05)
(0.293342 0.573775 0.05)
(0.285491 0.595986 0.05)
(0.362821 0.462789 0.05)
(0.344464 0.490326 0.05)
(0.600805 0.494545 0.05)
(0.61802 0.470882 0.05)
(0.663421 0.387296 0.05)
(0.658133 0.35708 0.05)
(0.556419 0.560436 0.05)
(0.577199 0.530468 0.05)
(0.414005 0.398854 0.05)
(0.390409 0.425447 0.05)
(0.497994 0.626686 0.05)
(0.523784 0.599108 0.05)
(0.517562 0.324586 0.05)
(0.497848 0.336307 0.05)
(0.469256 0.353883 0.05)
(0.445682 0.370344 0.05)
(0.428003 0.724732 0.05)
(0.442058 0.710156 0.05)
(0.456605 0.684343 0.05)
(0.470658 0.661044 0.05)
(0.282852 0.6281 0.05)
(0.28784 0.654721 0.05)
(0.370222 0.7291 0.05)
(0.398724 0.733187 0.05)
(0.307428 0.689092 0.05)
(0.331924 0.71071 0.05)
(0.566575 0.305091 0.05)
(0.543378 0.311357 0.05)
(0.631738 0.323533 0.05)
(0.603026 0.308532 0.05)
(0.683962 0.415104 0.05)
(0.649477 0.475732 0.05)
(0.28297 0.543757 0.05)
(0.319539 0.493229 0.05)
(0.605782 0.52751 0.05)
(0.258451 0.601114 0.05)
(0.362838 0.432847 0.05)
(0.4665 0.328075 0.05)
(0.554557 0.593372 0.05)
(0.474876 0.711079 0.05)
(0.414164 0.371858 0.05)
(0.499967 0.656421 0.05)
(0.665617 0.329864 0.05)
(0.517391 0.296328 0.05)
(0.432366 0.749686 0.05)
(0.346341 0.739023 0.05)
(0.275231 0.677142 0.05)
(0.586825 0.283791 0.05)
(0.696324 0.341604 0.05)
(0.709376 0.400858 0.05)
(0.703325 0.4439 0.05)
(0.683881 0.486701 0.05)
(0.227822 0.57277 0.05)
(0.244835 0.530007 0.05)
(0.620565 0.567455 0.05)
(0.59209 0.600511 0.05)
(0.516939 0.263276 0.05)
(0.569086 0.257308 0.05)
(0.304069 0.453303 0.05)
(0.328094 0.423644 0.05)
(0.504467 0.738759 0.05)
(0.469137 0.765364 0.05)
(0.315839 0.748797 0.05)
(0.267206 0.70884 0.05)
(0.241128 0.66976 0.05)
(0.22572 0.614034 0.05)
(0.448641 0.296208 0.05)
(0.483759 0.275292 0.05)
(0.427326 0.776688 0.05)
(0.363166 0.769846 0.05)
(0.569351 0.626634 0.05)
(0.544216 0.65824 0.05)
(0.394504 0.342799 0.05)
(0.423483 0.315248 0.05)
(0.531154 0.682998 0.05)
(0.519543 0.714458 0.05)
(0.347952 0.399174 0.05)
(0.373972 0.367154 0.05)
(0.614547 0.267244 0.05)
(0.667587 0.301471 0.05)
(0.263199 0.504111 0.05)
(0.285966 0.475208 0.05)
(0.664823 0.512637 0.05)
(0.64062 0.543079 0.05)
(0.320348 0.546003 0.05)
(0.313885 0.55789 0.05)
(0.327525 0.533757 0.05)
(0.316136 0.534649 0.05)
(0.335411 0.521031 0.05)
(0.310967 0.521456 0.05)
(0.303938 0.531745 0.05)
(0.622578 0.442961 0.05)
(0.630306 0.432275 0.05)
(0.647421 0.433333 0.05)
(0.637103 0.421341 0.05)
(0.657365 0.448085 0.05)
(0.664537 0.437127 0.05)
(0.642534 0.409801 0.05)
(0.306408 0.57294 0.05)
(0.301827 0.584416 0.05)
(0.289406 0.585048 0.05)
(0.298419 0.595899 0.05)
(0.279307 0.571588 0.05)
(0.274785 0.582502 0.05)
(0.296205 0.607657 0.05)
(0.355456 0.489363 0.05)
(0.346411 0.50349 0.05)
(0.365005 0.474626 0.05)
(0.353655 0.477063 0.05)
(0.375307 0.459435 0.05)
(0.350447 0.463937 0.05)
(0.34176 0.476563 0.05)
(0.603584 0.469776 0.05)
(0.6119 0.457657 0.05)
(0.594979 0.482697 0.05)
(0.609026 0.481917 0.05)
(0.586109 0.496824 0.05)
(0.615438 0.496776 0.05)
(0.623907 0.486243 0.05)
(0.645604 0.366532 0.05)
(0.639914 0.353448 0.05)
(0.647883 0.380041 0.05)
(0.661839 0.372269 0.05)
(0.64695 0.393326 0.05)
(0.676864 0.380273 0.05)
(0.673806 0.363909 0.05)
(0.564723 0.531901 0.05)
(0.574302 0.516238 0.05)
(0.554242 0.547827 0.05)
(0.566972 0.545024 0.05)
(0.542483 0.563736 0.05)
(0.570395 0.559637 0.05)
(0.580486 0.545693 0.05)
(0.401751 0.424686 0.05)
(0.389834 0.43955 0.05)
(0.414473 0.410767 0.05)
(0.402401 0.411931 0.05)
(0.427428 0.39823 0.05)
(0.400089 0.3995 0.05)
(0.389326 0.4121 0.05)
(0.511825 0.598841 0.05)
(0.525503 0.583981 0.05)
(0.498201 0.61312 0.05)
(0.510377 0.61272 0.05)
(0.485064 0.627218 0.05)
(0.512078 0.626695 0.05)
(0.524081 0.613722 0.05)
(0.508478 0.343965 0.05)
(0.497743 0.350154 0.05)
(0.518694 0.338325 0.05)
(0.508142 0.330755 0.05)
(0.528616 0.333099 0.05)
(0.503939 0.316353 0.05)
(0.494678 0.322425 0.05)
(0.457572 0.374224 0.05)
(0.444669 0.383728 0.05)
(0.470004 0.365995 0.05)
(0.457854 0.362003 0.05)
(0.482272 0.358687 0.05)
(0.454141 0.349591 0.05)
(0.443299 0.357826 0.05)
(0.428151 0.703419 0.05)
(0.434902 0.694692 0.05)
(0.420675 0.7105 0.05)
(0.435162 0.717677 0.05)
(0.41214 0.715771 0.05)
(0.445496 0.731061 0.05)
(0.453008 0.723477 0.05)
(0.459851 0.658279 0.05)
(0.470059 0.645032 0.05)
(0.451326 0.670426 0.05)
(0.462805 0.672713 0.05)
(0.443774 0.681531 0.05)
(0.471524 0.685976 0.05)
(0.476875 0.674901 0.05)
(0.298707 0.648516 0.05)
(0.303112 0.661257 0.05)
(0.29623 0.635911 0.05)
(0.285027 0.641313 0.05)
(0.295438 0.623468 0.05)
(0.269776 0.632419 0.05)
(0.272321 0.646536 0.05)
(0.387467 0.72049 0.05)
(0.399032 0.719865 0.05)
(0.374781 0.718637 0.05)
(0.384762 0.731802 0.05)
(0.361514 0.714568 0.05)
(0.38074 0.74271 0.05)
(0.396779 0.744898 0.05)
(0.332086 0.698301 0.05)
(0.344516 0.706472 0.05)
(0.321088 0.688435 0.05)
(0.319123 0.700356 0.05)
(0.312056 0.677193 0.05)
(0.304529 0.701442 0.05)
(0.317915 0.7131 0.05)
(0.551602 0.322774 0.05)
(0.541461 0.326887 0.05)
(0.562284 0.319689 0.05)
(0.554571 0.308197 0.05)
(0.574009 0.318236 0.05)
(0.557553 0.293368 0.05)
(0.545027 0.296494 0.05)
(0.603508 0.3229 0.05)
(0.590302 0.319331 0.05)
(0.616286 0.329273 0.05)
(0.617365 0.315103 0.05)
(0.628013 0.338277 0.05)
(0.632296 0.309434 0.05)
(0.616653 0.300895 0.05)
(0.659728 0.405583 0.05)
(0.670305 0.419653 0.05)
(0.674766 0.400719 0.05)
(0.678863 0.434284 0.05)
(0.687113 0.394276 0.05)
(0.628596 0.456707 0.05)
(0.633885 0.472063 0.05)
(0.6452 0.45957 0.05)
(0.639008 0.488564 0.05)
(0.660974 0.464172 0.05)
(0.30128 0.56017 0.05)
(0.296329 0.546133 0.05)
(0.288108 0.559365 0.05)
(0.29116 0.530699 0.05)
(0.273876 0.555906 0.05)
(0.333958 0.507508 0.05)
(0.332028 0.493352 0.05)
(0.321698 0.508419 0.05)
(0.329128 0.478378 0.05)
(0.309319 0.505951 0.05)
(0.588553 0.511256 0.05)
(0.591437 0.527063 0.05)
(0.602951 0.510483 0.05)
(0.594919 0.543691 0.05)
(0.617333 0.513633 0.05)
(0.283913 0.611961 0.05)
(0.272387 0.598732 0.05)
(0.27066 0.615203 0.05)
(0.260978 0.584112 0.05)
(0.25694 0.618774 0.05)
(0.376586 0.444502 0.05)
(0.376532 0.430135 0.05)
(0.363621 0.447658 0.05)
(0.374708 0.416296 0.05)
(0.350569 0.448578 0.05)
(0.484518 0.345349 0.05)
(0.483051 0.331978 0.05)
(0.469426 0.340947 0.05)
(0.478325 0.31867 0.05)
(0.452515 0.337056 0.05)
(0.540263 0.5797 0.05)
(0.539083 0.595406 0.05)
(0.554908 0.577082 0.05)
(0.540229 0.610352 0.05)
(0.569687 0.576789 0.05)
(0.448515 0.6974 0.05)
(0.457899 0.71119 0.05)
(0.463848 0.698605 0.05)
(0.470108 0.723301 0.05)
(0.480791 0.698742 0.05)
(0.430539 0.384086 0.05)
(0.430304 0.370959 0.05)
(0.415744 0.384866 0.05)
(0.426706 0.358611 0.05)
(0.400309 0.385589 0.05)
(0.48273 0.643506 0.05)
(0.484409 0.658585 0.05)
(0.496849 0.642225 0.05)
(0.492036 0.67159 0.05)
(0.512418 0.641502 0.05)
(0.646483 0.339231 0.05)
(0.663524 0.343547 0.05)
(0.649348 0.325229 0.05)
(0.678264 0.350194 0.05)
(0.649379 0.311619 0.05)
(0.530576 0.318507 0.05)
(0.530968 0.303672 0.05)
(0.517604 0.310364 0.05)
(0.531695 0.289439 0.05)
(0.503244 0.302732 0.05)
(0.41419 0.7299 0.05)
(0.414887 0.742459 0.05)
(0.431015 0.737678 0.05)
(0.413732 0.753825 0.05)
(0.448856 0.743346 0.05)
(0.350858 0.720824 0.05)
(0.338275 0.72508 0.05)
(0.359263 0.73491 0.05)
(0.32435 0.727671 0.05)
(0.369218 0.748325 0.05)
(0.296681 0.672255 0.05)
(0.28068 0.665275 0.05)
(0.291338 0.683779 0.05)
(0.26513 0.657652 0.05)
(0.287997 0.696262 0.05)
(0.58398 0.305712 0.05)
(0.595634 0.295542 0.05)
(0.575854 0.293557 0.05)
(0.608541 0.288237 0.05)
(0.566366 0.282303 0.05)
(0.697898 0.326796 0.05)
(0.710598 0.355046 0.05)
(0.705482 0.370984 0.05)
(0.717453 0.3845 0.05)
(0.693128 0.356937 0.05)
(0.699184 0.386625 0.05)
(0.718646 0.413531 0.05)
(0.700958 0.481684 0.05)
(0.690857 0.501028 0.05)
(0.709641 0.459849 0.05)
(0.69373 0.46646 0.05)
(0.716119 0.435043 0.05)
(0.688934 0.44969 0.05)
(0.678149 0.470113 0.05)
(0.222694 0.535951 0.05)
(0.232341 0.514986 0.05)
(0.21537 0.559953 0.05)
(0.236307 0.550412 0.05)
(0.211592 0.586578 0.05)
(0.246029 0.567426 0.05)
(0.255131 0.548213 0.05)
(0.638564 0.572153 0.05)
(0.625861 0.587147 0.05)
(0.605816 0.58308 0.05)
(0.612688 0.602118 0.05)
(0.602459 0.563275 0.05)
(0.587062 0.581837 0.05)
(0.599416 0.617183 0.05)
(0.503959 0.252719 0.05)
(0.528528 0.247693 0.05)
(0.541693 0.259353 0.05)
(0.555526 0.245772 0.05)
(0.531705 0.272923 0.05)
(0.556388 0.26879 0.05)
(0.584354 0.248283 0.05)
(0.283636 0.444115 0.05)
(0.295486 0.431161 0.05)
(0.317049 0.439948 0.05)
(0.307314 0.417745 0.05)
(0.321871 0.460132 0.05)
(0.334561 0.44308 0.05)
(0.319037 0.403981 0.05)
(0.52146 0.742925 0.05)
(0.505965 0.757669 0.05)
(0.488776 0.752282 0.05)
(0.48631 0.77065 0.05)
(0.484886 0.736616 0.05)
(0.469466 0.750124 0.05)
(0.462242 0.781044 0.05)
(0.322639 0.764927 0.05)
(0.296232 0.749176 0.05)
(0.29019 0.729787 0.05)
(0.273081 0.730713 0.05)
(0.308995 0.731785 0.05)
(0.284321 0.710955 0.05)
(0.25276 0.709705 0.05)
(0.239582 0.691569 0.05)
(0.226032 0.665233 0.05)
(0.231799 0.641495 0.05)
(0.216784 0.637286 0.05)
(0.246935 0.651405 0.05)
(0.240758 0.624367 0.05)
(0.212029 0.60864 0.05)
(0.430755 0.287822 0.05)
(0.448032 0.276408 0.05)
(0.466293 0.286131 0.05)
(0.466494 0.266627 0.05)
(0.468644 0.302695 0.05)
(0.485309 0.292206 0.05)
(0.486561 0.258203 0.05)
(0.440151 0.786316 0.05)
(0.40926 0.788116 0.05)
(0.395931 0.775685 0.05)
(0.377095 0.78419 0.05)
(0.410821 0.766735 0.05)
(0.379554 0.76341 0.05)
(0.345367 0.775027 0.05)
(0.589535 0.628894 0.05)
(0.577276 0.643473 0.05)
(0.554351 0.641891 0.05)
(0.566811 0.657937 0.05)
(0.548166 0.625968 0.05)
(0.533086 0.643588 0.05)
(0.55825 0.672716 0.05)
(0.375145 0.33795 0.05)
(0.388653 0.323956 0.05)
(0.410008 0.329443 0.05)
(0.402802 0.310271 0.05)
(0.415688 0.345026 0.05)
(0.431188 0.331086 0.05)
(0.417917 0.297293 0.05)
(0.552598 0.684366 0.05)
(0.546023 0.699629 0.05)
(0.523936 0.698163 0.05)
(0.539375 0.715183 0.05)
(0.508939 0.683966 0.05)
(0.5037 0.700287 0.05)
(0.530454 0.73105 0.05)
(0.328555 0.393131 0.05)
(0.340733 0.378871 0.05)
(0.361844 0.383758 0.05)
(0.35296 0.364285 0.05)
(0.366978 0.401072 0.05)
(0.38143 0.383386 0.05)
(0.365389 0.349617 0.05)
(0.607028 0.254193 0.05)
(0.635377 0.266703 0.05)
(0.642174 0.281941 0.05)
(0.66146 0.284301 0.05)
(0.62286 0.281099 0.05)
(0.64984 0.297573 0.05)
(0.683914 0.30676 0.05)
(0.241009 0.50049 0.05)
(0.252375 0.483923 0.05)
(0.275904 0.490534 0.05)
(0.263605 0.468925 0.05)
(0.282325 0.511135 0.05)
(0.293654 0.496422 0.05)
(0.274805 0.454678 0.05)
(0.682081 0.514536 0.05)
(0.670836 0.530358 0.05)
(0.651779 0.526895 0.05)
(0.659455 0.545547 0.05)
(0.647369 0.507923 0.05)
(0.634508 0.523499 0.05)
(0.648103 0.560631 0.05)
(0.673959 0.499765 0.05)
(0.667127 0.482725 0.05)
(0.65669 0.494938 0.05)
(0.630265 0.554581 0.05)
(0.623017 0.534528 0.05)
(0.612417 0.54792 0.05)
(0.254671 0.516949 0.05)
(0.265194 0.536389 0.05)
(0.274331 0.524229 0.05)
(0.295577 0.465098 0.05)
(0.303989 0.486214 0.05)
(0.313395 0.474075 0.05)
(0.707281 0.423232 0.05)
(0.698015 0.409287 0.05)
(0.694196 0.430328 0.05)
(0.338538 0.412075 0.05)
(0.346171 0.430606 0.05)
(0.357085 0.416252 0.05)
(0.225905 0.59273 0.05)
(0.240979 0.604181 0.05)
(0.242978 0.585352 0.05)
(0.57991 0.613256 0.05)
(0.573105 0.59582 0.05)
(0.559857 0.610694 0.05)
(0.535954 0.670285 0.05)
(0.521058 0.656541 0.05)
(0.512898 0.670185 0.05)
(0.436486 0.306021 0.05)
(0.445149 0.322082 0.05)
(0.457344 0.312706 0.05)
(0.51251 0.726299 0.05)
(0.49728 0.712136 0.05)
(0.491847 0.724227 0.05)
(0.499901 0.269373 0.05)
(0.500282 0.286088 0.05)
(0.515351 0.279543 0.05)
(0.384946 0.355177 0.05)
(0.39421 0.370536 0.05)
(0.405914 0.357698 0.05)
(0.683555 0.320543 0.05)
(0.667502 0.315242 0.05)
(0.682108 0.33516 0.05)
(0.449379 0.771987 0.05)
(0.452267 0.757652 0.05)
(0.432748 0.763452 0.05)
(0.253049 0.689789 0.05)
(0.269475 0.691988 0.05)
(0.257133 0.672009 0.05)
(0.338912 0.760262 0.05)
(0.35497 0.755051 0.05)
(0.331284 0.74432 0.05)
(0.591583 0.260838 0.05)
(0.577643 0.270159 0.05)
(0.600015 0.27396 0.05)
)


// ************************************************************************* //
