/*--------------------------------*- C++ -*----------------------------------*\
| =========                 |                                                 |
| \\      /  F ield         | OpenFOAM: The Open Source CFD Toolbox           |
|  \\    /   O peration     | Version:  v1806                                 |
|   \\  /    A nd           | Web:      www.OpenFOAM.com                      |
|    \\/     M anipulation  |                                                 |
\*---------------------------------------------------------------------------*/
FoamFile
{
    version     2.0;
    format      ascii;
    class       volScalarField;
    location    "0.03";
    object      p;
}
// * * * * * * * * * * * * * * * * * * * * * * * * * * * * * * * * * * * * * //

dimensions      [0 2 -2 0 0 0 0];


internalField   nonuniform List<scalar> 
5400
(
2.39769
1.93908
1.74314
1.65378
1.58481
1.52781
1.48164
1.44236
1.40731
1.37517
1.34514
1.31663
1.2892
1.2625
1.23626
1.21025
1.18428
1.15823
1.13196
1.10539
1.07847
1.05118
1.02351
0.995496
0.967196
0.938692
0.910093
0.881525
0.853123
0.825037
0.797418
0.770374
0.744076
0.718633
0.69414
0.670664
0.648251
0.626926
0.606691
0.587524
0.569387
0.552226
0.535982
0.520586
0.505961
0.492029
0.478714
0.465944
0.45365
0.441763
0.430219
0.418962
0.407943
0.397119
0.386447
0.375892
0.36542
0.355007
0.34463
0.334269
0.323911
0.31354
0.303145
0.292715
0.282244
0.271728
0.261163
0.250547
0.239879
0.229154
0.218374
0.207539
0.196649
0.185708
0.174717
0.163678
0.152595
0.141469
0.130302
0.119097
0.107858
0.0965879
0.0852898
0.0739673
0.0626237
0.0512623
0.0398857
0.028498
0.0171004
0.00569833
1.98989
1.79794
1.69177
1.63491
1.57773
1.52427
1.47977
1.44142
1.40683
1.37496
1.34511
1.31674
1.28943
1.26282
1.23665
1.2107
1.18479
1.15876
1.1325
1.10593
1.07898
1.05164
1.02391
0.9958
0.967391
0.938766
0.910033
0.881324
0.852777
0.824547
0.796782
0.769654
0.743272
0.717759
0.693217
0.669714
0.647296
0.625986
0.605784
0.586664
0.568584
0.551488
0.535314
0.51999
0.505436
0.491573
0.478324
0.465616
0.45338
0.441544
0.430046
0.41883
0.407848
0.397055
0.38641
0.375878
0.365426
0.355027
0.344663
0.334313
0.323964
0.313599
0.303208
0.292781
0.282312
0.271797
0.261232
0.250616
0.239946
0.22922
0.218438
0.207599
0.196707
0.185762
0.174768
0.163727
0.152641
0.141511
0.130341
0.119133
0.107891
0.0966167
0.0853151
0.0739895
0.0626429
0.0512781
0.0398981
0.0285074
0.017109
0.00570399
1.83761
1.71727
1.64865
1.61009
1.56238
1.51411
1.47284
1.4366
1.40343
1.37257
1.34348
1.3157
1.28885
1.26263
1.23677
1.21108
1.18536
1.15949
1.13334
1.10682
1.07988
1.0525
1.02467
0.996421
0.967823
0.938967
0.909975
0.880986
0.852148
0.823628
0.795596
0.768216
0.741618
0.715934
0.69127
0.667694
0.64525
0.623956
0.603808
0.584775
0.566805
0.549838
0.533804
0.518625
0.504218
0.4905
0.477392
0.464817
0.452703
0.440979
0.429584
0.41846
0.40756
0.396838
0.386256
0.375777
0.36537
0.35501
0.344678
0.334356
0.324028
0.31368
0.303302
0.292885
0.282423
0.271913
0.261352
0.250737
0.240066
0.229338
0.218553
0.207711
0.196815
0.185866
0.174867
0.16382
0.152728
0.141593
0.130416
0.119202
0.107953
0.0966727
0.0853648
0.0740326
0.0626792
0.0513079
0.0399214
0.0285251
0.0171202
0.00570818
1.73167
1.6432
1.59961
1.5772
1.54002
1.49855
1.46176
1.4286
1.39761
1.36836
1.34051
1.3137
1.28763
1.26205
1.23673
1.21147
1.1861
1.1605
1.13455
1.10815
1.08125
1.05382
1.02586
0.997406
0.96853
0.939331
0.909941
0.880514
0.851222
0.822249
0.793786
0.766008
0.739072
0.713119
0.688261
0.664567
0.642078
0.620807
0.600742
0.581841
0.564042
0.547273
0.531453
0.516499
0.50232
0.488827
0.475934
0.463561
0.451636
0.440086
0.428849
0.417868
0.407094
0.396483
0.385997
0.3756
0.365265
0.354966
0.344684
0.334404
0.32411
0.31379
0.303433
0.293033
0.282583
0.272081
0.261525
0.250913
0.240242
0.229513
0.218724
0.207878
0.196975
0.18602
0.175014
0.163959
0.152858
0.141714
0.130529
0.119305
0.108046
0.0967567
0.0854392
0.0740971
0.062734
0.0513529
0.0399564
0.0285499
0.0171354
0.00571295
1.65702
1.58201
1.55367
1.54331
1.5151
1.48015
1.44808
1.41837
1.39
1.36275
1.33648
1.31094
1.28592
1.26121
1.23662
1.21196
1.18709
1.16188
1.13621
1.10999
1.08316
1.05569
1.02757
0.998839
0.969584
0.93991
0.909968
0.879935
0.850005
0.820394
0.79132
0.762987
0.735578
0.709249
0.68412
0.660264
0.637717
0.616486
0.596543
0.577832
0.560274
0.54378
0.528261
0.513619
0.499753
0.486565
0.473964
0.461867
0.450198
0.438884
0.427861
0.417071
0.406466
0.396004
0.385647
0.375362
0.365122
0.354905
0.344691
0.334467
0.324218
0.313934
0.303606
0.293228
0.282795
0.272305
0.261756
0.251147
0.240476
0.229744
0.218951
0.208099
0.197189
0.186225
0.175209
0.164144
0.153032
0.141876
0.130678
0.119442
0.108171
0.0968686
0.0855381
0.0741832
0.0628072
0.0514131
0.0400032
0.0285837
0.0171558
0.00571951
1.60135
1.53251
1.5131
1.51109
1.48995
1.46068
1.43305
1.40683
1.38121
1.35618
1.33171
1.30767
1.28391
1.26026
1.23657
1.21267
1.18844
1.16373
1.13844
1.11246
1.08573
1.05822
1.02989
1.00082
0.97108
0.940789
0.910121
0.879281
0.848501
0.818035
0.788146
0.759077
0.73104
0.704217
0.678738
0.654681
0.632076
0.610914
0.591147
0.572698
0.555466
0.539344
0.524222
0.509988
0.496527
0.483732
0.471504
0.459758
0.448413
0.437396
0.426641
0.416091
0.405697
0.395419
0.385223
0.375078
0.364956
0.354839
0.344709
0.334553
0.32436
0.314121
0.303828
0.293477
0.283064
0.272588
0.262047
0.251441
0.240771
0.230036
0.219237
0.208377
0.197457
0.186482
0.175454
0.164376
0.15325
0.142079
0.130866
0.119614
0.108327
0.0970087
0.0856621
0.0742911
0.0628987
0.0514882
0.0400616
0.0286258
0.0171813
0.00572779
1.55747
1.49175
1.47776
1.48153
1.4658
1.44127
1.41762
1.3947
1.37181
1.34907
1.32653
1.30413
1.28179
1.25936
1.23673
1.21375
1.19028
1.16619
1.14137
1.1157
1.08913
1.06158
1.03301
1.00351
0.973158
0.942083
0.910481
0.878597
0.846711
0.815137
0.78419
0.754167
0.725323
0.697874
0.671967
0.647679
0.625027
0.603979
0.584464
0.566372
0.549575
0.533938
0.519329
0.505612
0.492659
0.480351
0.468583
0.457265
0.446314
0.435655
0.425221
0.414956
0.404813
0.394756
0.38475
0.374768
0.364786
0.354785
0.344752
0.334676
0.324547
0.31436
0.304108
0.293787
0.283397
0.272935
0.262403
0.251801
0.241129
0.230389
0.219583
0.208713
0.197782
0.186793
0.17575
0.164655
0.153511
0.142323
0.131091
0.119821
0.108515
0.0971772
0.0858114
0.0744207
0.0630084
0.0515776
0.0401316
0.0286762
0.0172118
0.00573775
1.52161
1.45762
1.44707
1.4549
1.44329
1.42264
1.40244
1.38252
1.36226
1.34178
1.32123
1.30057
1.27976
1.25869
1.23726
1.21533
1.19276
1.16941
1.14517
1.1199
1.09352
1.066
1.03712
1.0071
0.975998
0.94394
0.911157
0.877943
0.844643
0.811645
0.779342
0.7481
0.718238
0.690022
0.663607
0.639066
0.616397
0.595538
0.576378
0.558769
0.542544
0.527533
0.513571
0.500499
0.488171
0.476455
0.46524
0.454431
0.443942
0.4337
0.423638
0.413703
0.403849
0.394043
0.384254
0.374458
0.364632
0.354763
0.344838
0.33485
0.324794
0.314663
0.304455
0.294167
0.2838
0.273353
0.262829
0.252229
0.241555
0.230809
0.219993
0.20911
0.198164
0.187158
0.176096
0.164982
0.153819
0.142609
0.131355
0.120063
0.108735
0.0973743
0.0859856
0.0745719
0.0631366
0.0516828
0.0402135
0.028735
0.0172472
0.00574938
1.49153
1.42861
1.42035
1.43109
1.42265
1.40514
1.3879
1.3707
1.35288
1.33462
1.31605
1.29719
1.278
1.25842
1.23831
1.21757
1.19604
1.17358
1.15003
1.12525
1.09909
1.07143
1.04241
1.01183
0.979825
0.946555
0.912293
0.877397
0.842298
0.807482
0.77345
0.740667
0.709533
0.680391
0.653391
0.628595
0.605969
0.585409
0.566749
0.549787
0.534306
0.52009
0.506938
0.494662
0.483093
0.472086
0.461523
0.451305
0.441349
0.431582
0.421941
0.412375
0.402845
0.393318
0.383769
0.374176
0.364521
0.354794
0.344987
0.335095
0.325114
0.315043
0.304881
0.294626
0.284281
0.273849
0.263331
0.252731
0.242052
0.231297
0.220468
0.209569
0.198605
0.187579
0.176496
0.165359
0.154172
0.142937
0.131659
0.120341
0.108986
0.0975999
0.0861848
0.0747448
0.0632829
0.0518029
0.040307
0.028802
0.0172876
0.00576268
1.46582
1.40361
1.39696
1.40986
1.40388
1.38895
1.37425
1.35948
1.34393
1.32778
1.31119
1.29416
1.27669
1.25868
1.24004
1.22064
1.20031
1.17888
1.15618
1.13202
1.10623
1.07868
1.0493
1.01804
0.984941
0.950187
0.914083
0.877063
0.839672
0.802538
0.76631
0.731585
0.698867
0.668629
0.640977
0.615953
0.593479
0.57338
0.555418
0.539317
0.524792
0.511576
0.499423
0.488116
0.477459
0.467292
0.45749
0.447952
0.438598
0.429362
0.420186
0.411026
0.401848
0.392623
0.383332
0.373956
0.364483
0.354906
0.345221
0.335428
0.325525
0.315515
0.305397
0.295174
0.28485
0.274429
0.263915
0.253313
0.242625
0.231857
0.221012
0.210094
0.199108
0.188059
0.17695
0.165786
0.154571
0.143308
0.132001
0.120654
0.10927
0.0978541
0.0864093
0.0749395
0.0634478
0.0519378
0.040412
0.0288773
0.0173329
0.00577767
1.44352
1.3818
1.37634
1.39089
1.38687
1.3741
1.36159
1.34898
1.33555
1.32143
1.30678
1.29163
1.27593
1.25961
1.24258
1.22467
1.20572
1.18552
1.16384
1.14048
1.1152
1.0878
1.05813
1.0261
0.991731
0.955177
0.916784
0.87708
0.836766
0.79667
0.75765
0.720483
0.68579
0.654283
0.625931
0.600758
0.57861
0.559214
0.542221
0.527255
0.513949
0.501974
0.49104
0.480893
0.471317
0.462134
0.453208
0.444442
0.435762
0.427109
0.418439
0.409715
0.400911
0.392006
0.382984
0.373834
0.364549
0.355125
0.345565
0.33587
0.326045
0.316092
0.306017
0.295823
0.285516
0.275103
0.264588
0.253979
0.243279
0.232494
0.221628
0.210687
0.199675
0.188597
0.177459
0.166265
0.155018
0.143723
0.132384
0.121003
0.109586
0.0981372
0.0866592
0.0751559
0.0636309
0.0520876
0.0405286
0.0289608
0.0173832
0.00579435
1.4239
1.36258
1.35802
1.37388
1.37147
1.3605
1.34991
1.33927
1.32781
1.31565
1.30293
1.28966
1.27582
1.26132
1.24604
1.22982
1.21244
1.19368
1.17327
1.15091
1.12632
1.09923
1.06935
1.03653
1.0007
0.961986
0.920756
0.877653
0.833587
0.78968
0.747101
0.706884
0.669794
0.636788
0.607708
0.582539
0.560996
0.542649
0.526995
0.513524
0.501764
0.491313
0.481838
0.473059
0.464739
0.456688
0.448761
0.440861
0.432924
0.424906
0.416775
0.40851
0.400095
0.391519
0.382773
0.373852
0.364754
0.355482
0.346043
0.336444
0.326692
0.316793
0.306754
0.296583
0.286288
0.275877
0.265357
0.254735
0.244018
0.233211
0.222319
0.211349
0.200306
0.189196
0.178024
0.166795
0.155513
0.144182
0.132806
0.121389
0.109935
0.098449
0.0869341
0.075394
0.0638323
0.0522524
0.0406568
0.0290526
0.0174384
0.00581265
1.40646
1.34543
1.34161
1.35853
1.35748
1.34807
1.33918
1.33033
1.32072
1.31046
1.29965
1.28832
1.27642
1.26386
1.2505
1.23617
1.22062
1.20357
1.1847
1.16365
1.14004
1.11347
1.08355
1.04996
1.01252
0.971253
0.926521
0.879087
0.830157
0.781288
0.734144
0.690138
0.650279
0.615389
0.585601
0.560715
0.540207
0.523404
0.50959
0.498081
0.488272
0.47968
0.47193
0.46473
0.457838
0.45106
0.444248
0.437305
0.430178
0.42284
0.415277
0.407487
0.399468
0.391221
0.382748
0.374051
0.365136
0.35601
0.346685
0.337173
0.327485
0.317632
0.307622
0.297468
0.287177
0.27676
0.266228
0.255587
0.244846
0.234011
0.223088
0.212084
0.201005
0.189857
0.178647
0.167378
0.156056
0.144685
0.133268
0.121811
0.110316
0.0987896
0.0872342
0.0756538
0.064052
0.0524321
0.0407966
0.0291525
0.0174983
0.00583256
1.39075
1.32998
1.32676
1.34459
1.34469
1.33666
1.3293
1.32211
1.31426
1.30584
1.29694
1.28759
1.27772
1.26725
1.25601
1.24381
1.23036
1.21535
1.19837
1.17899
1.15676
1.13108
1.1014
1.06721
1.02809
0.983885
0.934855
0.881869
0.826525
0.771076
0.717996
0.669234
0.62597
0.588951
0.558638
0.534544
0.515745
0.501191
0.489884
0.480925
0.473567
0.46723
0.461503
0.456095
0.450787
0.445402
0.439802
0.433894
0.427634
0.42101
0.414034
0.406724
0.399099
0.391175
0.382964
0.374479
0.365733
0.356739
0.347516
0.33808
0.328445
0.318626
0.308636
0.298486
0.288191
0.277761
0.267207
0.25654
0.245768
0.234898
0.223937
0.212893
0.201773
0.190582
0.179328
0.168015
0.156648
0.145232
0.133771
0.122268
0.11073
0.0991588
0.0875594
0.0759352
0.0642897
0.0526264
0.0409475
0.0292603
0.017563
0.00585408
1.37643
1.31588
1.31318
1.33179
1.33291
1.3261
1.32015
1.3145
1.30834
1.30172
1.29474
1.28742
1.27969
1.27146
1.26256
1.25275
1.24174
1.22915
1.2145
1.19723
1.17693
1.15268
1.12375
1.08932
1.04865
1.0012
0.946963
0.886797
0.822804
0.758376
0.697498
0.642831
0.595232
0.555913
0.525519
0.503107
0.487066
0.475767
0.467828
0.462131
0.457798
0.45417
0.450799
0.447408
0.443823
0.439922
0.435597
0.430773
0.425414
0.419526
0.413143
0.406308
0.399063
0.391443
0.383475
0.375182
0.366584
0.357705
0.348565
0.339187
0.32959
0.319791
0.309806
0.299651
0.289339
0.278885
0.268301
0.257598
0.246787
0.235874
0.224869
0.213778
0.20261
0.191371
0.180067
0.168705
0.157289
0.145824
0.134313
0.122763
0.111176
0.0995565
0.0879093
0.0762378
0.0645452
0.0528351
0.0411095
0.0293759
0.0176324
0.00587721
1.36321
1.30286
1.30061
1.3199
1.32193
1.31623
1.31157
1.30738
1.30283
1.29799
1.29294
1.28771
1.28223
1.27641
1.27007
1.26297
1.25477
1.24505
1.23327
1.21879
1.20102
1.17893
1.15152
1.11761
1.07589
1.02516
0.964771
0.895256
0.819194
0.741931
0.670914
0.609848
0.55558
0.514022
0.484557
0.465342
0.453652
0.447011
0.443544
0.44193
0.44123
0.440773
0.440105
0.438963
0.437234
0.434875
0.43185
0.428119
0.423664
0.418509
0.412707
0.406327
0.399436
0.392091
0.384335
0.376205
0.367729
0.358938
0.349859
0.340519
0.33094
0.321143
0.311147
0.30097
0.290629
0.280139
0.269514
0.258766
0.247906
0.236943
0.225885
0.214741
0.203518
0.192224
0.180866
0.169449
0.157979
0.14646
0.134896
0.123292
0.111653
0.0999823
0.0882837
0.0765612
0.0648181
0.0530578
0.0412824
0.0294993
0.0177065
0.00590192
1.35084
1.29066
1.28881
1.3087
1.31155
1.30686
1.30339
1.30059
1.2976
1.29449
1.29139
1.2883
1.28518
1.28195
1.27842
1.27435
1.26937
1.26303
1.25475
1.24382
1.22936
1.21043
1.18575
1.15364
1.11205
1.05865
0.991446
0.9099
0.816182
0.718128
0.632983
0.574069
0.511992
0.461457
0.433733
0.420156
0.415148
0.415058
0.417437
0.420822
0.424345
0.427456
0.429778
0.431089
0.431331
0.430551
0.42881
0.426138
0.422551
0.418092
0.412834
0.40687
0.400293
0.393182
0.385599
0.377593
0.369204
0.36047
0.351422
0.342093
0.332509
0.322693
0.312669
0.302454
0.292069
0.281529
0.27085
0.260046
0.249128
0.238105
0.226986
0.215781
0.204497
0.193142
0.181723
0.170247
0.158717
0.14714
0.135518
0.123858
0.112162
0.100436
0.088682
0.076905
0.0651081
0.0532944
0.0414661
0.0296304
0.0177851
0.00592814
1.3391
1.27907
1.27757
1.29801
1.30158
1.29781
1.29545
1.29394
1.29245
1.29105
1.28988
1.28898
1.28832
1.28784
1.28737
1.28667
1.28536
1.28295
1.27883
1.27223
1.2621
1.24762
1.22738
1.19919
1.16006
1.10583
1.03209
0.936481
0.818652
0.679379
0.538186
0.431185
0.394822
0.378051
0.367808
0.366186
0.371564
0.380477
0.390275
0.399611
0.407889
0.414842
0.420309
0.424178
0.426447
0.427245
0.426741
0.425053
0.422256
0.418419
0.413639
0.40803
0.401709
0.394777
0.387316
0.379387
0.371043
0.362326
0.353276
0.343928
0.334312
0.324455
0.31438
0.304109
0.293663
0.283059
0.272313
0.261441
0.250453
0.239361
0.228173
0.216899
0.205547
0.194125
0.18264
0.171098
0.159504
0.147863
0.136179
0.124458
0.112702
0.100916
0.0891035
0.0772687
0.0654147
0.0535445
0.0416601
0.0297687
0.017868
0.00595581
1.32778
1.26789
1.2667
1.28761
1.29184
1.28891
1.28756
1.28726
1.28718
1.28743
1.28817
1.28947
1.29135
1.29377
1.29661
1.29961
1.30243
1.30455
1.30531
1.30388
1.2991
1.29051
1.27696
1.25582
1.22348
1.17269
1.0938
0.982242
0.849364
0.731003
0.6374
0.522899
0.41447
0.328086
0.301809
0.306913
0.32482
0.344871
0.363366
0.379385
0.392799
0.403729
0.412335
0.418712
0.422958
0.425268
0.425904
0.425086
0.42296
0.419636
0.415235
0.409896
0.403754
0.396933
0.38953
0.381624
0.373274
0.364531
0.35544
0.346039
0.336361
0.326435
0.316287
0.30594
0.295415
0.28473
0.273905
0.262951
0.251884
0.240712
0.229446
0.218095
0.206668
0.195171
0.183614
0.172001
0.160337
0.148628
0.136878
0.125091
0.113271
0.101422
0.0895476
0.0776518
0.0657374
0.0538076
0.0418641
0.029914
0.0179551
0.00598488
1.31673
1.25695
1.25603
1.27736
1.28216
1.27996
1.27952
1.28032
1.28155
1.28337
1.28596
1.28945
1.29391
1.29935
1.30569
1.31275
1.32016
1.32742
1.33385
1.33862
1.34075
1.33844
1.33418
1.32385
1.30583
1.26822
1.18927
1.03866
0.757876
0.363603
0.117632
0.0183556
0.0426831
0.117852
0.180201
0.230105
0.274106
0.309979
0.338488
0.36152
0.380134
0.394982
0.40657
0.415255
0.421286
0.42494
0.426558
0.42645
0.424836
0.42188
0.417731
0.41255
0.406492
0.399697
0.392281
0.384332
0.37592
0.367102
0.357927
0.348435
0.338663
0.32864
0.318394
0.307949
0.297326
0.286545
0.275624
0.264577
0.253417
0.242156
0.230803
0.219367
0.207857
0.19628
0.184644
0.172954
0.161216
0.149434
0.137613
0.125757
0.113869
0.101953
0.0900133
0.0780532
0.0660754
0.0540829
0.0420775
0.0300661
0.0180463
0.00601531
1.30578
1.24611
1.24541
1.26709
1.27237
1.2708
1.27115
1.27292
1.27533
1.27858
1.28292
1.28852
1.29553
1.30405
1.31409
1.3255
1.33798
1.35101
1.36388
1.37576
1.38599
1.39442
1.39789
1.40002
1.40849
1.40396
1.35237
1.24166
1.13271
1.02985
0.761831
0.507054
0.28595
0.118159
0.106521
0.163971
0.232589
0.282278
0.318909
0.347899
0.371112
0.389489
0.403728
0.414385
0.421881
0.426599
0.428956
0.429339
0.428041
0.425273
0.42122
0.416062
0.409973
0.403109
0.395596
0.387533
0.378997
0.37005
0.360744
0.351122
0.341221
0.331072
0.320703
0.310137
0.299396
0.288501
0.277469
0.266316
0.255053
0.243692
0.232243
0.220714
0.209113
0.197449
0.185728
0.173956
0.162139
0.15028
0.138383
0.126453
0.114494
0.102508
0.0904997
0.0784721
0.0664279
0.05437
0.0423
0.0302246
0.0181413
0.00604705
1.29484
1.23524
1.23471
1.25667
1.26234
1.26127
1.26227
1.26484
1.26827
1.27277
1.27867
1.28623
1.29569
1.30727
1.32109
1.33713
1.35517
1.37466
1.39474
1.41434
1.43247
1.44926
1.46767
1.4944
1.527
1.58707
1.60513
1.45858
0.410268
-1.54642
-2.71296
-2.4587
-1.5235
-0.41593
-0.0225175
0.102867
0.214461
0.268607
0.307222
0.340037
0.366818
0.388066
0.404456
0.416634
0.425167
0.430565
0.433334
0.433929
0.432702
0.429911
0.425772
0.420484
0.414236
0.407193
0.399491
0.391237
0.382511
0.373379
0.363894
0.354101
0.344035
0.333729
0.323209
0.312499
0.301621
0.290595
0.279438
0.268165
0.256787
0.245316
0.233761
0.222131
0.210433
0.198675
0.186863
0.175004
0.163102
0.151162
0.139186
0.127179
0.115144
0.103086
0.0910055
0.0789076
0.0667942
0.0546683
0.0425312
0.0303893
0.01824
0.00608002
1.28379
1.22425
1.22385
1.246
1.25194
1.25124
1.25271
1.2559
1.2601
1.26562
1.27282
1.28208
1.29376
1.30824
1.32584
1.34673
1.37083
1.39763
1.42599
1.4541
1.47968
1.50095
1.52297
1.56675
1.6718
1.83762
1.05598
-2.72263
-8.53454
-14.2157
-16.4356
-15.7535
-12.1635
-7.0246
-2.43923
-0.294745
0.179454
0.264578
0.302983
0.337812
0.36771
0.39136
0.40933
0.422467
0.431511
0.437115
0.439889
0.440356
0.438914
0.435859
0.43143
0.425843
0.419295
0.411957
0.40397
0.395443
0.386459
0.377084
0.367372
0.357364
0.347097
0.336603
0.325906
0.31503
0.303996
0.292822
0.281525
0.270119
0.258615
0.247024
0.235355
0.223615
0.211813
0.199955
0.188047
0.176096
0.164105
0.152079
0.14002
0.127932
0.115819
0.103684
0.0915294
0.0793584
0.0671734
0.0549771
0.0427705
0.0305597
0.018342
0.0061141
1.27259
1.21307
1.21273
1.23499
1.24109
1.2406
1.24235
1.24591
1.25062
1.25682
1.26497
1.27553
1.28904
1.30608
1.32725
1.35306
1.38377
1.41907
1.45757
1.49612
1.52937
1.54803
1.55139
1.56677
1.59251
-0.0368131
-6.88061
-17.3314
-24.1219
-26.3034
-27.9245
-27.9668
-25.7837
-20.1409
-10.693
-3.17947
-0.136323
0.221148
0.303835
0.342069
0.374445
0.400146
0.419
0.43234
0.441222
0.446459
0.448758
0.448703
0.446725
0.443141
0.438205
0.432139
0.425144
0.41739
0.409019
0.400138
0.390827
0.381152
0.371162
0.360899
0.350398
0.339685
0.328786
0.317722
0.306512
0.295174
0.283722
0.272171
0.26053
0.24881
0.237018
0.225161
0.213248
0.201284
0.189276
0.177227
0.165143
0.153027
0.140882
0.128711
0.116516
0.104302
0.0920699
0.0798234
0.0675645
0.0552954
0.0430171
0.0307353
0.0184472
0.00614918
1.26118
1.20167
1.20134
1.22361
1.22973
1.22928
1.23109
1.23476
1.23964
1.24612
1.25474
1.26605
1.28078
1.29975
1.32396
1.35445
1.39216
1.4375
1.48945
1.54387
1.58602
1.60175
1.56336
1.42275
-0.442077
-8.73958
-21.744
-27.0159
-27.4991
-26.6915
-24.965
-25.8489
-27.2867
-28.2896
-21.2102
-9.24909
-1.07668
0.188643
0.33647
0.363208
0.390247
0.415784
0.43423
0.44669
0.454538
0.458716
0.459994
0.458982
0.456121
0.451731
0.446063
0.439338
0.431749
0.423461
0.414608
0.405292
0.395589
0.385559
0.375246
0.364689
0.353919
0.34296
0.331835
0.320562
0.309159
0.297641
0.286021
0.274313
0.262525
0.250667
0.238744
0.226764
0.214734
0.202659
0.190544
0.178395
0.166214
0.154004
0.141769
0.129511
0.117233
0.104937
0.0926253
0.0803012
0.0679662
0.0556223
0.0432703
0.0309154
0.018555
0.00618516
1.24958
1.19004
1.18965
1.21184
1.21784
1.21725
1.21889
1.22236
1.22704
1.23333
1.24182
1.25316
1.26822
1.28811
1.31428
1.34855
1.39307
1.44985
1.51973
1.59951
1.67993
1.71321
1.58817
-0.00972507
-8.62959
-22.8795
-27.2598
-26.4653
-21.5253
-15.4409
-10.4904
-10.5413
-16.2646
-26.5536
-27.6977
-16.2824
-3.46166
-0.0186684
0.325622
0.377641
0.409756
0.437458
0.455115
0.465669
0.471513
0.473867
0.473536
0.471116
0.467021
0.461548
0.454931
0.447372
0.43905
0.430116
0.420691
0.410867
0.40071
0.390273
0.379595
0.368709
0.357639
0.346409
0.335035
0.323535
0.311922
0.30021
0.288411
0.276536
0.264592
0.252587
0.240527
0.228418
0.216265
0.204074
0.191849
0.179594
0.167313
0.155007
0.142679
0.130332
0.117967
0.105587
0.0931939
0.0807901
0.0683771
0.0559566
0.0435291
0.0310996
0.0186651
0.00622193
1.2378
1.17821
1.17771
1.19972
1.20547
1.20455
1.20578
1.20874
1.21281
1.21838
1.22606
1.23653
1.25075
1.27006
1.29633
1.33227
1.38172
1.44989
1.54336
1.6664
1.83014
1.94461
0.817741
-7.30079
-22.3842
-27.5519
-26.1944
-18.8381
-11.2881
-4.98502
-2.688
-2.63922
-6.54761
-22.6488
-28.0269
-20.2094
-4.90324
0.0326353
0.415783
0.445817
0.453507
0.471018
0.483164
0.489546
0.492086
0.49175
0.4892
0.484926
0.479263
0.472451
0.464686
0.456137
0.446959
0.43728
0.427204
0.416805
0.406142
0.395254
0.384174
0.372927
0.361532
0.350008
0.338367
0.326622
0.314785
0.302868
0.290879
0.278827
0.266719
0.254561
0.242358
0.230114
0.217834
0.205523
0.193185
0.180821
0.168436
0.156031
0.143608
0.131169
0.118716
0.10625
0.0937736
0.0812885
0.0687959
0.0562973
0.0437928
0.0312871
0.0187774
0.00625938
1.22592
1.16624
1.16557
1.18731
1.19269
1.19127
1.19185
1.19399
1.19704
1.20136
1.20749
1.2161
1.22811
1.24489
1.2685
1.30218
1.35115
1.42416
1.53655
1.71024
2.02921
1.8496
-4.88846
-20.871
-28.0009
-26.7759
-18.6211
-11.1214
-5.51055
-3.63861
-3.10842
-3.0219
-5.67551
-21.2281
-28.004
-21.9629
-5.73619
-0.0128938
0.450188
0.496348
0.499005
0.509677
0.51577
0.517086
0.5155
0.511843
0.506599
0.500111
0.492605
0.484244
0.475166
0.4655
0.455364
0.44486
0.434067
0.423042
0.411829
0.400454
0.388942
0.377308
0.365567
0.35373
0.341806
0.329804
0.317732
0.305599
0.293411
0.281176
0.268897
0.256581
0.244229
0.231846
0.219435
0.207001
0.194545
0.182071
0.16958
0.157073
0.144553
0.13202
0.119477
0.106924
0.0943625
0.0817947
0.0692212
0.0566431
0.0440605
0.0314775
0.0188913
0.00629741
1.21401
1.15424
1.15335
1.17474
1.17963
1.17754
1.17727
1.17832
1.17998
1.18254
1.18643
1.19219
1.20058
1.21271
1.23039
1.25652
1.29599
1.35763
1.45709
1.62894
1.96135
-1.75199
-16.9597
-27.2161
-27.4616
-19.2704
-11.1477
-6.13012
-4.60727
-3.93447
-3.48718
-3.14743
-8.71911
-23.5335
-27.9312
-20.2043
-4.71093
0.175528
0.542252
0.560795
0.55315
0.554325
0.552359
0.547442
0.541011
0.533538
0.525249
0.516288
0.506744
0.496682
0.486175
0.4753
0.464134
0.452746
0.44119
0.429502
0.417706
0.405819
0.393852
0.381813
0.36971
0.357546
0.345328
0.333058
0.320742
0.308386
0.295993
0.283568
0.271114
0.258634
0.246131
0.233605
0.221061
0.2085
0.195925
0.183337
0.170738
0.158129
0.14551
0.132882
0.120247
0.107606
0.0949585
0.0823069
0.0696515
0.0569931
0.0443313
0.0316702
0.0190066
0.00633588
1.2022
1.14231
1.14116
1.16214
1.16644
1.16358
1.16228
1.16202
1.162
1.16239
1.16349
1.1656
1.16917
1.17483
1.18361
1.19713
1.21809
1.25107
1.30032
1.40156
1.06142
-10.2767
-24.1691
-27.722
-20.9441
-11.6618
-5.71656
-4.67088
-4.39223
-4.23669
-4.0966
-5.88254
-15.1834
-26.3679
-26.9951
-16.2962
-2.48201
0.469629
0.666027
0.637484
0.614364
0.602706
0.591088
0.579234
0.567583
0.556063
0.544565
0.533008
0.521327
0.509488
0.49749
0.485357
0.473123
0.46082
0.448475
0.436101
0.423705
0.411289
0.398854
0.386399
0.373923
0.361425
0.348904
0.336361
0.323795
0.31121
0.298608
0.28599
0.273358
0.260712
0.248053
0.235383
0.222703
0.210014
0.197318
0.184616
0.171908
0.159194
0.146475
0.133752
0.121024
0.108293
0.0955593
0.0828232
0.0700852
0.0573457
0.0446042
0.0318643
0.0191228
0.00637463
1.19063
1.13061
1.12917
1.14969
1.15334
1.14961
1.14719
1.14546
1.14357
1.14155
1.13951
1.13751
1.13556
1.1337
1.13192
1.13005
1.1279
1.12389
1.11622
1.14566
-1.59441
-17.0338
-25.6749
-24.998
-14.1908
-5.813
-3.76121
-3.99894
-4.30227
-4.61155
-5.5213
-11.5135
-21.8074
-28.0912
-24.878
-9.98405
-0.190392
0.775413
0.785865
0.717119
0.676616
0.650727
0.629374
0.61075
0.594031
0.578565
0.563918
0.549793
0.535986
0.522372
0.508882
0.495487
0.482179
0.468957
0.455818
0.442753
0.429753
0.416805
0.403898
0.391023
0.378171
0.365334
0.352508
0.339687
0.32687
0.314054
0.30124
0.288427
0.275615
0.262801
0.249987
0.237171
0.224354
0.211536
0.198719
0.185901
0.173082
0.160264
0.147445
0.134625
0.121805
0.108984
0.0961626
0.0833416
0.0705207
0.0576998
0.0448783
0.0320592
0.0192395
0.00641353
1.17944
1.11928
1.11753
1.13757
1.14055
1.13591
1.1323
1.12907
1.12524
1.12074
1.1155
1.10931
1.10182
1.09245
1.08028
1.06352
1.03964
0.99827
0.942574
0.822278
-4.22413
-20.332
-25.8621
-22.072
-8.802
-3.32289
-3.17727
-3.70051
-4.33969
-5.43018
-10.04
-19.2818
-27.5449
-28.143
-17.602
-3.20653
0.832255
0.960444
0.857109
0.776843
0.72821
0.692836
0.664294
0.640233
0.619197
0.600232
0.582707
0.566183
0.550363
0.53505
0.520121
0.505504
0.491152
0.477033
0.463116
0.449374
0.435778
0.422304
0.408931
0.395639
0.382413
0.36924
0.356109
0.343013
0.329944
0.316899
0.303874
0.290866
0.277873
0.264892
0.251921
0.238959
0.226005
0.213059
0.200119
0.187186
0.174258
0.161334
0.148415
0.135499
0.122585
0.109674
0.0967662
0.0838603
0.0709563
0.058054
0.0451524
0.0322542
0.0193561
0.00645244
1.16879
1.10849
1.10644
1.12599
1.12829
1.12274
1.11797
1.11325
1.10755
1.10068
1.09244
1.0824
1.06994
1.05406
1.03326
1.00497
0.966246
0.904509
0.850139
0.634361
-4.97375
-21.4853
-26.1719
-19.8921
-6.1962
-2.87301
-2.95695
-3.42703
-4.45542
-8.32837
-17.1754
-26.6053
-29.8531
-22.7473
-7.57454
0.231707
1.02795
0.985555
0.886245
0.815923
0.766327
0.726955
0.694379
0.666604
0.642267
0.620435
0.600435
0.581784
0.564139
0.547264
0.531
0.515238
0.499901
0.48493
0.470271
0.455879
0.44171
0.427728
0.4139
0.400203
0.386612
0.37311
0.359681
0.346313
0.332997
0.319725
0.306491
0.29329
0.280119
0.266972
0.253846
0.240739
0.22765
0.214575
0.201514
0.188466
0.175429
0.162401
0.149381
0.136369
0.123363
0.110363
0.0973677
0.0843771
0.0713904
0.058407
0.0454255
0.0324485
0.0194724
0.00649122
1.15885
1.0984
1.09604
1.11513
1.11677
1.11036
1.10449
1.0984
1.09099
1.08201
1.07116
1.05791
1.04146
1.02065
0.993784
0.95813
0.910489
0.839971
0.766648
0.6429
-4.54034
-20.4451
-27.1734
-20.2588
-6.93173
-3.23166
-2.92206
-3.06882
-5.69793
-14.9633
-25.0542
-31.7973
-26.4656
-11.4878
-1.13579
0.799596
0.99513
0.949026
0.886883
0.837879
0.793209
0.75386
0.719592
0.689537
0.662842
0.638777
0.616747
0.596288
0.577054
0.558797
0.541334
0.524535
0.508298
0.49254
0.477192
0.462191
0.447482
0.433018
0.418759
0.404673
0.390732
0.376913
0.363195
0.349564
0.336007
0.322514
0.309076
0.295687
0.28234
0.26903
0.255752
0.242503
0.229279
0.216078
0.202897
0.189735
0.17659
0.163459
0.15034
0.137233
0.124135
0.111046
0.0979647
0.0848901
0.0718213
0.0587574
0.0456968
0.0326415
0.0195879
0.00652972
1.14977
1.08919
1.08655
1.1052
1.10623
1.09903
1.09216
1.08484
1.07595
1.06521
1.05228
1.03659
1.01733
0.993375
0.963129
0.924306
0.874283
0.811253
0.72026
0.698765
-2.92974
-16.3105
-26.3279
-21.8777
-10.0112
-3.78638
-2.37309
-3.47327
-13.6256
-23.4745
-29.8799
-29.5691
-15.2391
-2.49983
0.610031
0.943285
0.970877
0.942246
0.901455
0.857767
0.815188
0.776022
0.74078
0.709214
0.680823
0.655058
0.631414
0.609473
0.58891
0.569474
0.550975
0.533267
0.516232
0.49977
0.483798
0.468242
0.453035
0.438124
0.423463
0.409012
0.39474
0.380619
0.366627
0.352744
0.338955
0.325248
0.311613
0.298042
0.284525
0.271056
0.25763
0.244241
0.230885
0.21756
0.204262
0.190989
0.177737
0.164504
0.151288
0.138086
0.124898
0.111722
0.098555
0.0853974
0.0722475
0.059104
0.0459651
0.0328324
0.0197022
0.0065678
1.1417
1.081
1.07811
1.09635
1.09683
1.08893
1.0812
1.07285
1.06276
1.05064
1.03617
1.01883
0.997914
0.972478
0.941204
0.902122
0.851834
0.783801
0.67376
0.569664
-0.738955
-10.8099
-22.1513
-25.0303
-17.589
-10.5305
-8.55076
-15.0238
-23.4908
-28.3185
-30.4779
-20.8316
-5.28434
0.374416
0.921627
0.999482
0.991904
0.962443
0.921243
0.877058
0.834293
0.794625
0.758514
0.725837
0.696212
0.669178
0.644297
0.621193
0.599563
0.579165
0.559806
0.541332
0.523613
0.506542
0.490022
0.473971
0.458318
0.443001
0.427971
0.413184
0.398605
0.384203
0.369952
0.355831
0.341822
0.327913
0.314089
0.300342
0.286661
0.273039
0.259469
0.245945
0.232462
0.219016
0.205603
0.192221
0.178865
0.165532
0.15222
0.138927
0.12565
0.112387
0.0991364
0.0858972
0.0726673
0.0594455
0.0462294
0.0330206
0.0198148
0.00660533
1.13478
1.07397
1.07084
1.08874
1.08874
1.08022
1.07177
1.06258
1.05155
1.03842
1.02292
1.00463
0.983014
0.957422
0.927064
0.890986
0.848134
0.79881
0.742355
0.708599
0.561219
-3.84044
-14.6236
-22.9519
-23.6128
-22.7076
-22.7563
-25.5607
-28.8526
-28.6237
-23.3583
-9.28146
0.386983
1.24576
1.19863
1.11266
1.05112
0.996527
0.944313
0.895544
0.850742
0.809956
0.772995
0.739495
0.709008
0.681084
0.655315
0.631355
0.608921
0.58778
0.567744
0.548654
0.530375
0.512793
0.495807
0.47933
0.463286
0.447611
0.432251
0.41716
0.402301
0.387639
0.373149
0.358807
0.344593
0.330492
0.31649
0.302576
0.288739
0.27497
0.261262
0.247608
0.234002
0.220439
0.206915
0.193427
0.179969
0.166539
0.153134
0.139751
0.126386
0.113039
0.0997067
0.0863875
0.0730794
0.0597807
0.046489
0.0332053
0.0199254
0.00664217
1.12912