/*--------------------------------*- C++ -*----------------------------------*\
| =========                 |                                                 |
| \\      /  F ield         | OpenFOAM: The Open Source CFD Toolbox           |
|  \\    /   O peration     | Version:  v1806                                 |
|   \\  /    A nd           | Web:      www.OpenFOAM.com                      |
|    \\/     M anipulation  |                                                 |
\*---------------------------------------------------------------------------*/
FoamFile
{
    version     2.0;
    format      ascii;
    class       surfaceScalarField;
    location    "0.03";
    object      phi;
}
// * * * * * * * * * * * * * * * * * * * * * * * * * * * * * * * * * * * * * //

dimensions      [0 3 -1 0 0 0 0];
oriented        oriented;


internalField   nonuniform List<scalar> 
10650
(
0.00292932
0.000404011
0.00259736
0.000331961
0.00241036
0.000187001
0.00231356
9.67989e-05
0.00226121
5.23484e-05
0.00222964
3.15754e-05
0.00220899
2.06513e-05
0.00219462
1.43659e-05
0.0021841
1.05179e-05
0.00217612
7.98626e-06
0.0021699
6.21435e-06
0.002165
4.90765e-06
0.00216109
3.91036e-06
0.00215796
3.12842e-06
0.00215547
2.49211e-06
0.00215349
1.97261e-06
0.00215196
1.53731e-06
0.00215079
1.16491e-06
0.00214994
8.54127e-07
0.00214935
5.87666e-07
0.00214899
3.59604e-07
0.00214881
1.76744e-07
0.00214878
3.01849e-08
0.00214887
-8.61198e-08
0.00214903
-1.60769e-07
0.00214923
-1.99086e-07
0.00214944
-2.07833e-07
0.00214962
-1.83832e-07
0.00214975
-1.29544e-07
0.0021498
-5.44074e-08
0.00214977
3.47833e-08
0.00214962
1.45822e-07
0.00214936
2.65379e-07
0.00214898
3.79361e-07
0.00214849
4.87073e-07
0.0021479
5.91966e-07
0.00214721
6.84401e-07
0.00214646
7.58609e-07
0.00214564
8.11158e-07
0.0021448
8.48303e-07
0.00214392
8.72666e-07
0.00214304
8.80763e-07
0.00214217
8.71625e-07
0.00214132
8.48051e-07
0.00214051
8.1672e-07
0.00213973
7.81147e-07
0.00213898
7.40034e-07
0.00213829
6.92732e-07
0.00213765
6.40424e-07
0.00213706
5.87815e-07
0.00213653
5.38285e-07
0.00213603
4.92113e-07
0.00213559
4.4683e-07
0.00213518
4.01891e-07
0.00213483
3.57751e-07
0.00213451
3.16773e-07
0.00213423
2.80561e-07
0.00213398
2.49176e-07
0.00213376
2.20877e-07
0.00213357
1.93958e-07
0.0021334
1.68287e-07
0.00213325
1.44377e-07
0.00213313
1.23426e-07
0.00213302
1.06053e-07
0.00213293
9.18069e-08
0.00213285
7.93315e-08
0.00213278
6.74732e-08
0.00213273
5.6328e-08
0.00213268
4.59088e-08
0.00213265
3.68271e-08
0.00213262
2.95358e-08
0.00213259
2.39891e-08
0.00213257
1.96986e-08
0.00213256
1.60839e-08
0.00213254
1.27782e-08
0.00213253
9.59687e-09
0.00213253
6.51344e-09
0.00213252
3.69103e-09
0.00213252
1.43183e-09
0.00213252
-5.24794e-11
0.00213252
-7.3764e-10
0.00213253
-8.47682e-10
0.00213253
-7.55099e-10
0.00213253
-7.51619e-10
0.00213253
-7.14004e-10
0.00213253
-4.63286e-10
0.00213253
1.23134e-09
0.00213252
2.17087e-09
0.0021325
2.02348e-08
2.76843e-08
0.00345411
0.00028323
0.00347107
0.000315008
0.00343857
0.000219499
0.00339647
0.000138901
0.00336002
8.87916e-05
0.00333199
5.96053e-05
0.00331077
4.18758e-05
0.00329459
3.05461e-05
0.0032821
2.30055e-05
0.00327232
1.77626e-05
0.00326457
1.39707e-05
0.00325835
1.1128e-05
0.00325333
8.92659e-06
0.00324927
7.18646e-06
0.003246
5.77011e-06
0.00324337
4.59739e-06
0.00324129
3.61664e-06
0.00323968
2.77824e-06
0.00323847
2.06129e-06
0.00323761
1.45027e-06
0.00323704
9.30032e-07
0.00323672
4.95788e-07
0.00323661
1.41453e-07
0.00323666
-1.39603e-07
0.00323683
-3.32238e-07
0.00323708
-4.43233e-07
0.00323736
-4.87517e-07
0.00323763
-4.61947e-07
0.00323787
-3.66964e-07
0.00323803
-2.15577e-07
0.00323809
-2.35465e-08
0.00323804
2.01711e-07
0.00323785
4.51583e-07
0.00323752
7.06492e-07
0.00323706
9.52594e-07
0.00323647
1.18279e-06
0.00323576
1.38579e-06
0.00323497
1.55706e-06
0.00323409
1.69125e-06
0.00323315
1.78802e-06
0.00323217
1.84759e-06
0.00323118
1.87047e-06
0.00323019
1.86282e-06
0.00322921
1.82717e-06
0.00322826
1.7708e-06
0.00322734
1.69625e-06
0.00322647
1.60868e-06
0.00322565
1.51068e-06
0.00322489
1.40557e-06
0.00322418
1.29786e-06
0.00322353
1.19193e-06
0.00322293
1.08975e-06
0.00322239
9.90228e-07
0.00322189
8.93839e-07
0.00322145
8.00311e-07
0.00322105
7.13419e-07
0.0032207
6.35014e-07
0.00322038
5.64507e-07
0.0032201
4.99466e-07
0.00321986
4.3951e-07
0.00321964
3.83696e-07
0.00321946
3.33042e-07
0.00321929
2.87991e-07
0.00321915
2.48841e-07
0.00321902
2.14761e-07
0.00321892
1.84875e-07
0.00321883
1.58265e-07
0.00321875
1.33944e-07
0.00321869
1.11714e-07
0.00321863
9.22633e-08
0.00321858
7.57021e-08
0.00321855
6.20397e-08
0.00321852
5.09378e-08
0.00321849
4.1557e-08
0.00321847
3.34213e-08
0.00321845
2.60233e-08
0.00321844
1.93034e-08
0.00321843
1.34214e-08
0.00321842
8.59514e-09
0.00321842
5.08817e-09
0.00321842
2.74595e-09
0.00321841
1.26395e-09
0.00321841
3.1049e-10
0.00321841
-2.65491e-10
0.00321841
-5.03826e-10
0.00321841
-5.36089e-10
0.00321841
8.9288e-10
0.00321841
4.92953e-10
0.00321842
1.53371e-08
2.14562e-08
0.00343294
0.000183627
0.00349611
0.000251835
0.00351007
0.000205535
0.00349966
0.000149316
0.00348183
0.000106618
0.00346417
7.72676e-05
0.00344878
5.72679e-05
0.00343593
4.33909e-05
0.00342539
3.35479e-05
0.00341677
2.63801e-05
0.00340973
2.1016e-05
0.00340395
1.69039e-05
0.00339922
1.36618e-05
0.00339535
1.10571e-05
0.00339219
8.92502e-06
0.00338965
7.1403e-06
0.00338763
5.63156e-06
0.00338607
4.34091e-06
0.0033849
3.22961e-06
0.00338408
2.27495e-06
0.00338355
1.45455e-06
0.00338328
7.64032e-07
0.00338323
2.00267e-07
0.00338333
-2.47204e-07
0.00338356
-5.64274e-07
0.00338388
-7.60552e-07
0.00338423
-8.36962e-07
0.00338457
-8.01128e-07
0.00338487
-6.64621e-07
0.00338509
-4.34958e-07
0.0033852
-1.31202e-07
0.00338517
2.27947e-07
0.003385
6.21272e-07
0.00338468
1.02561e-06
0.00338421
1.41817e-06
0.00338361
1.78598e-06
0.00338289
2.11074e-06
0.00338206
2.38684e-06
0.00338114
2.60385e-06
0.00338017
2.76022e-06
0.00337916
2.85472e-06
0.00337814
2.89529e-06
0.00337712
2.88646e-06
0.00337611
2.83474e-06
0.00337513
2.74815e-06
0.00337419
2.63329e-06
0.0033733
2.49805e-06
0.00337247
2.34459e-06
0.00337169
2.18322e-06
0.00337097
2.01859e-06
0.00337031
1.85601e-06
0.0033697
1.69568e-06
0.00336915
1.53899e-06
0.00336866
1.3887e-06
0.00336821
1.24598e-06
0.00336781
1.11394e-06
0.00336745
9.92511e-07
0.00336714
8.81524e-07
0.00336686
7.79037e-07
0.00336661
6.85234e-07
0.0033664
5.99693e-07
0.00336621
5.2196e-07
0.00336604
4.5284e-07
0.0033659
3.92129e-07
0.00336577
3.38871e-07
0.00336567
2.91238e-07
0.00336558
2.49047e-07
0.0033655
2.10779e-07
0.00336544
1.7687e-07
0.00336538
1.47386e-07
0.00336534
1.21999e-07
0.0033653
1.00628e-07
0.00336527
8.25609e-08
0.00336524
6.71472e-08
0.00336522
5.38091e-08
0.0033652
4.21017e-08
0.00336519
3.1735e-08
0.00336518
2.29908e-08
0.00336517
1.58957e-08
0.00336517
1.05253e-08
0.00336517
6.48872e-09
0.00336516
3.56768e-09
0.00336516
1.43021e-09
0.00336516
-3.45553e-11
0.00336516
-1.13803e-09
0.00336516
-1.78782e-09
0.00336517
-1.38664e-09
0.00336517
-1.85359e-09
0.00336518
3.56016e-09
3.50151e-09
0.00338848
0.000128481
0.00344116
0.000199153
0.00346589
0.000180804
0.00347091
0.000144304
0.00346616
0.000111368
0.00345773
8.56895e-05
0.00344853
6.64673e-05
0.00343979
5.21333e-05
0.00343198
4.13602e-05
0.0034252
3.31594e-05
0.00341942
2.68004e-05
0.00341453
2.17906e-05
0.00341043
1.7766e-05
0.00340701
1.44687e-05
0.00340421
1.17295e-05
0.00340193
9.41569e-06
0.00340013
7.43877e-06
0.00339873
5.73326e-06
0.00339772
4.24729e-06
0.00339703
2.96124e-06
0.00339663
1.85799e-06
0.00339647
9.19062e-07
0.00339654
1.37176e-07
0.00339677
-4.78352e-07
0.00339712
-9.17208e-07
0.00339755
-1.18768e-06
0.00339801
-1.2962e-06
0.00339845
-1.24926e-06
0.00339884
-1.05275e-06
0.00339913
-7.26104e-07
0.00339929
-2.92094e-07
0.0033993
2.19085e-07
0.00339915
7.7677e-07
0.00339882
1.35042e-06
0.00339833
1.90947e-06
0.00339769
2.4275e-06
0.00339691
2.88689e-06
0.00339603
3.27323e-06
0.00339506
3.57435e-06
0.00339403
3.7871e-06
0.00339297
3.91672e-06
0.00339189
3.96894e-06
0.00339083
3.95243e-06
0.00338978
3.87804e-06
0.00338878
3.75434e-06
0.00338782
3.59177e-06
0.00338692
3.40021e-06
0.00338607
3.18917e-06
0.00338529
2.96752e-06
0.00338456
2.74209e-06
0.0033839
2.51719e-06
0.0033833
2.29609e-06
0.00338276
2.08169e-06
0.00338227
1.8772e-06
0.00338183
1.68464e-06
0.00338144
1.50538e-06
0.00338109
1.34101e-06
0.00338079
1.18936e-06
0.00338051
1.05028e-06
0.00338028
9.23467e-07
0.00338007
8.07904e-07
0.00337989
7.03831e-07
0.00337973
6.11435e-07
0.00337959
5.29497e-07
0.00337947
4.56678e-07
0.00337937
3.92093e-07
0.00337929
3.34737e-07
0.00337921
2.83512e-07
0.00337915
2.38383e-07
0.0033791
1.99088e-07
0.00337906
1.65296e-07
0.00337902
1.36366e-07
0.00337899
1.11677e-07
0.00337897
9.04201e-08
0.00337895
7.21115e-08
0.00337894
5.63003e-08
0.00337893
4.2719e-08
0.00337892
3.14283e-08
0.00337891
2.22717e-08
0.00337891
1.49921e-08
0.0033789
9.37332e-09
0.0033789
5.10136e-09
0.0033789
1.95765e-09
0.0033789
-5.10248e-10
0.0033789
-2.3853e-09
0.00337891
-3.735e-09
0.00337891
-4.46008e-09
0.00337891
-5.86843e-09
0.00337892
-5.3033e-09
-7.66194e-09
0.00336486
9.69504e-05
0.0034031
0.000160915
0.00342762
0.000156289
0.00343881
0.00013311
0.00344138
0.000108798
0.00343926
8.7808e-05
0.00343494
7.07903e-05
0.0034298
5.72679e-05
0.00342461
4.65511e-05
0.00341973
3.80391e-05
0.00341532
3.12125e-05
0.00341144
2.56702e-05
0.00340809
2.11141e-05
0.00340525
1.73123e-05
0.00340288
1.4103e-05
0.00340094
1.13551e-05
0.00339941
8.96826e-06
0.00339825
6.88826e-06
0.00339743
5.07095e-06
0.00339691
3.47765e-06
0.00339668
2.08833e-06
0.0033967
9.0047e-07
0.00339693
-8.92436e-08
0.00339732
-8.75823e-07
0.00339784
-1.43234e-06
0.00339843
-1.78145e-06
0.00339905
-1.91725e-06
0.00339965
-1.84158e-06
0.00340016
-1.56935e-06
0.00340056
-1.1215e-06
0.0034008
-5.30803e-07
0.00340085
1.6287e-07
0.00340071
9.18029e-07
0.00340037
1.68983e-06
0.00339984
2.43974e-06
0.00339914
3.12989e-06
0.00339829
3.73686e-06
0.00339732
4.24245e-06
0.00339627
4.62717e-06
0.00339516
4.89714e-06
0.00339402
5.05504e-06
0.00339288
5.11144e-06
0.00339175
5.07871e-06
0.00339066
4.96929e-06
0.00338962
4.79739e-06
0.00338863
4.57739e-06
0.00338771
4.32292e-06
0.00338685
4.04629e-06
0.00338606
3.75758e-06
0.00338534
3.46466e-06
0.00338468
3.17336e-06
0.00338409
2.88881e-06
0.00338356
2.61472e-06
0.00338308
2.35472e-06
0.00338265
2.11033e-06
0.00338227
1.88445e-06
0.00338194
1.67605e-06
0.00338164
1.48439e-06
0.00338139
1.30911e-06
0.00338116
1.1495e-06
0.00338096
1.00508e-06
0.00338079
8.75504e-07
0.00338064
7.59985e-07
0.00338051
6.57382e-07
0.00338041
5.66306e-07
0.00338031
4.8532e-07
0.00338023
4.13609e-07
0.00338017
3.50084e-07
0.00338011
2.94271e-07
0.00338006
2.45729e-07
0.00338003
2.03836e-07
0.00337999
1.67936e-07
0.00337997
1.37109e-07
0.00337995
1.1055e-07
0.00337993
8.7754e-08
0.00337992
6.83159e-08
0.00337991
5.17473e-08
0.00337991
3.80281e-08
0.0033799
2.67306e-08
0.0033799
1.77807e-08
0.0033799
1.08316e-08
0.0033799
5.46609e-09
0.0033799
1.37942e-09
0.0033799
-1.75164e-09
0.0033799
-4.1936e-09
0.0033799
-6.1041e-09
0.00337991
-7.66284e-09
0.00337991
-9.93125e-09
0.00337992
-1.13083e-08
-1.42389e-08
0.00335302
7.7268e-05
0.00338067
0.00013326
0.00340183
0.000135126
0.00341454
0.000120402
0.00342061
0.000102732
0.00342228
8.61317e-05
0.00342136
7.17146e-05
0.00341903
5.96002e-05
0.00341604
4.95395e-05
0.00341286
4.12151e-05
0.00340977
3.43104e-05
0.00340689
2.85439e-05
0.00340431
2.3694e-05
0.00340206
1.95654e-05
0.00340016
1.60038e-05
0.0033986
1.29077e-05
0.00339738
1.01937e-05
0.00339647
7.7934e-06
0.00339588
5.662e-06
0.00339559
3.77328e-06
0.00339556
2.11557e-06
0.00339578
6.8417e-07
0.00339621
-5.26506e-07
0.00339682
-1.47715e-06
0.00339755
-2.16586e-06
0.00339836
-2.5933e-06
0.00339919
-2.74758e-06
0.00339998
-2.63106e-06
0.00340067
-2.25897e-06
0.00340121
-1.65715e-06
0.00340155
-8.71546e-07
0.00340166
4.73662e-08
0.00340154
1.0422e-06
0.00340117
2.05308e-06
0.00340059
3.02832e-06
0.0033998
3.91804e-06
0.00339884
4.69034e-06
0.00339777
5.32041e-06
0.0033966
5.79471e-06
0.00339538
6.11908e-06
0.00339414
6.29555e-06
0.0033929
6.34422e-06
0.0033917
6.27988e-06
0.00339055
6.12106e-06
0.00338946
5.88739e-06
0.00338844
5.59769e-06
0.00338749
5.26941e-06
0.00338662
4.91693e-06
0.00338583
4.55223e-06
0.00338511
4.18469e-06
0.00338446
3.82205e-06
0.00338388
3.47049e-06
0.00338336
3.13433e-06
0.0033829
2.81681e-06
0.00338249
2.5203e-06
0.00338213
2.24596e-06
0.00338181
1.99373e-06
0.00338153
1.76231e-06
0.00338129
1.55162e-06
0.00338108
1.36056e-06
0.00338089
1.18802e-06
0.00338074
1.03357e-06
0.0033806
8.95978e-07
0.00338048
7.73742e-07
0.00338038
6.65231e-07
0.0033803
5.69018e-07
0.00338023
4.83951e-07
0.00338017
4.08985e-07
0.00338012
3.43263e-07
0.00338008
2.86157e-07
0.00338005
2.36847e-07
0.00338002
1.94345e-07
0.00338
1.57784e-07
0.00337999
1.26475e-07
0.00337997
9.98112e-08
0.00337996
7.71718e-08
0.00337996
5.80675e-08
0.00337995
4.21897e-08
0.00337995
2.92444e-08
0.00337995
1.88922e-08
0.00337995
1.08129e-08
0.00337995
4.51115e-09
0.00337995
-3.05466e-10
0.00337996
-3.88398e-09
0.00337996
-6.59186e-09
0.00337996
-8.95532e-09
0.00337996
-1.0895e-08
0.00337997
-1.344e-08
0.00337997
-1.52892e-08
-1.79427e-08
0.00334665
6.39495e-05
0.00336711
0.000112803
0.00338461
0.000117629
0.00339682
0.000108192
0.00340422
9.53321e-05
0.00340797
8.2375e-05
0.00340923
7.04539e-05
0.00340891
5.9924e-05
0.00340765
5.07984e-05
0.0034059
4.2962e-05
0.00340395
3.62611e-05
0.00340199
3.05099e-05
0.00340014
2.55416e-05
0.00339848
2.12232e-05
0.00339705
1.74377e-05
0.00339587
1.40879e-05
0.00339496
1.10991e-05
0.00339434
8.41622e-06
0.003394
6.0036e-06
0.00339393
3.84093e-06
0.00339413
1.91719e-06
0.00339458
2.28495e-07
0.00339527
-1.2096e-06
0.00339612
-2.33506e-06
0.00339713
-3.16825e-06
0.00339821
-3.67954e-06
0.00339931
-3.84903e-06
0.00340036
-3.67444e-06
0.00340127
-3.17164e-06
0.00340199
-2.37604e-06
0.00340246
-1.34302e-06
0.00340265
-1.42167e-07
0.00340254
1.15065e-06
0.00340214
2.45558e-06
0.00340147
3.70132e-06
0.00340056
4.82369e-06
0.00339947
5.78214e-06
0.00339824
6.54881e-06
0.00339692
7.11388e-06
0.00339556
7.48441e-06
0.00339419
7.66565e-06
0.00339284
7.68856e-06
0.00339155
7.57326e-06
0.00339032
7.34614e-06
0.00338918
7.03308e-06
0.00338812
6.6579e-06
0.00338715
6.24117e-06
0.00338626
5.8003e-06
0.00338547
5.3494e-06
0.00338475
4.89961e-06
0.00338411
4.45989e-06
0.00338355
4.03682e-06
0.00338305
3.63543e-06
0.0033826
3.25877e-06
0.00338222
2.90875e-06
0.00338188
2.58588e-06
0.00338158
2.28987e-06
0.00338132
2.01964e-06
0.0033811
1.77414e-06
0.00338091
1.55249e-06
0.00338074
1.35337e-06
0.0033806
1.17545e-06
0.00338048
1.01696e-06
0.00338038
8.76251e-07
0.00338029
7.51531e-07
0.00338022
6.41185e-07
0.00338016
5.43814e-07
0.00338011
4.58409e-07
0.00338007
3.83835e-07
0.00338004
3.19108e-07
0.00338001
2.63134e-07
0.00337999
2.14866e-07
0.00337997
1.73451e-07
0.00337996
1.3803e-07
0.00337995
1.07861e-07
0.00337995
8.23311e-08
0.00337995
6.10267e-08
0.00337994
4.34736e-08
0.00337994
2.92014e-08
0.00337995
1.77709e-08
0.00337995
8.80473e-09
0.00337995
2.1327e-09
0.00337995
-2.97972e-09
0.00337996
-6.86242e-09
0.00337996
-9.75615e-09
0.00337996
-1.21142e-08
0.00337997
-1.40003e-08
0.00337997
-1.63521e-08
0.00337997
-1.78549e-08
-1.97786e-08
0.00334295
5.43366e-05
0.0033585
9.72473e-05
0.00337282
0.000103307
0.00338383
9.71823e-05
0.00339143
8.77339e-05
0.00339617
7.76389e-05
0.00339874
6.7881e-05
0.00339979
5.88789e-05
0.0033998
5.07875e-05
0.00339916
4.36022e-05
0.00339816
3.72605e-05
0.00339699
3.16735e-05
0.0033958
2.67375e-05
0.00339467
2.2354e-05
0.00339367
1.8433e-05
0.00339286
1.4898e-05
0.00339227
1.16902e-05
0.00339192
8.76677e-06
0.00339183
6.09754e-06
0.003392
3.66606e-06
0.00339245
1.47315e-06
0.00339317
-5.01237e-07
0.00339413
-2.15985e-06
0.00339529
-3.50258e-06
0.00339662
-4.49942e-06
0.00339805
-5.10789e-06
0.00339949
-5.29182e-06
0.00340086
-5.04252e-06
0.00340206
-4.37359e-06
0.00340302
-3.32895e-06
0.00340366
-1.98025e-06
0.00340393
-4.19491e-07
0.00340383
1.25066e-06
0.00340337
2.92039e-06
0.00340258
4.49395e-06
0.00340151
5.8906e-06
0.00340023
7.06165e-06
0.0033988
7.97742e-06
0.00339728
8.62916e-06
0.00339574
9.02831e-06
0.00339421
9.19639e-06
0.00339273
9.16832e-06
0.00339133
8.97684e-06
0.00339002
8.65685e-06
0.00338881
8.24151e-06
0.00338771
7.76026e-06
0.00338671
7.23774e-06
0.00338582
6.69417e-06
0.00338502
6.14541e-06
0.00338431
5.60433e-06
0.00338369
5.08098e-06
0.00338315
4.58216e-06
0.00338267
4.11258e-06
0.00338225
3.67486e-06
0.00338189
3.27071e-06
0.00338158
2.89918e-06
0.00338131
2.55983e-06
0.00338108
2.25138e-06
0.00338088
1.97279e-06
0.00338071
1.72225e-06
0.00338056
1.49792e-06
0.00338044
1.29801e-06
0.00338034
1.12034e-06
0.00338025
9.62503e-07
0.00338018
8.23059e-07
0.00338012
7.00058e-07
0.00338007
5.92016e-07
0.00338003
4.97604e-07
0.00338
4.14918e-07
0.00337998
3.43329e-07
0.00337996
2.81504e-07
0.00337995
2.28358e-07
0.00337994
1.82842e-07
0.00337993
1.43992e-07
0.00337993
1.11069e-07
0.00337993
8.34343e-08
0.00337993
6.04738e-08
0.00337993
4.15655e-08
0.00337993
2.62358e-08
0.00337994
1.41371e-08
0.00337994
4.84902e-09
0.00337994
-1.96549e-09
0.00337995
-7.11529e-09
0.00337995
-1.08993e-08
0.00337996
-1.3657e-08
0.00337996
-1.56307e-08
0.00337996
-1.69897e-08
0.00337997
-1.8689e-08
0.00337997
-1.94583e-08
-2.03193e-08
0.00334062
4.70528e-05
0.00335279
8.50771e-05
0.00336455
9.15493e-05
0.0033742
8.75321e-05
0.00338145
8.04754e-05
0.00338653
7.25602e-05
0.00338981
6.46038e-05
0.00339171
5.69837e-05
0.0033926
4.98907e-05
0.00339281
4.33992e-05
0.00339255
3.75112e-05
0.00339204
3.21925e-05
0.00339139
2.73841e-05
0.00339072
2.3019e-05
0.00339012
1.90349e-05
0.00338964
1.53767e-05
0.00338934
1.1998e-05
0.00338924
8.86295e-06
0.00338939
5.94828e-06
0.00338981
3.24623e-06
0.00339052
7.64442e-07
0.0033915
-1.48883e-06
0.00339277
-3.42728e-06
0.0033943
-5.03061e-06
0.00339603
-6.22648e-06
0.00339788
-6.9578e-06
0.00339975
-7.16668e-06
0.00340154
-6.82647e-06
0.00340311
-5.94721e-06
0.00340436
-4.58166e-06
0.00340521
-2.82359e-06
0.00340558
-7.98507e-07
0.00340548
1.35517e-06
0.00340492
3.48197e-06
0.00340395
5.45793e-06
0.00340266
7.1802e-06
0.00340113
8.59244e-06
0.00339944
9.66893e-06
0.00339768
1.03925e-05
0.00339591
1.07977e-05
0.00339418
1.09211e-05
0.00339254
1.08089e-05
0.00339101
1.05077e-05
0.00338961
1.00632e-05
0.00338833
9.51712e-06
0.00338719
8.90489e-06
0.00338617
8.25575e-06
0.00338527
7.59259e-06
0.00338448
6.93349e-06
0.00338379
6.29211e-06
0.0033832
5.67837e-06
0.00338268
5.09915e-06
0.00338223
4.55874e-06
0.00338185
4.05883e-06
0.00338152
3.59945e-06
0.00338124
3.1797e-06
0.003381
2.79835e-06
0.0033808
2.45369e-06
0.00338063
2.14372e-06
0.00338048
1.86621e-06
0.00338036
1.61874e-06
0.00338026
1.39869e-06
0.00338018
1.20335e-06
0.00338011
1.03035e-06
0.00338006
8.77835e-07
0.00338001
7.43964e-07
0.00337998
6.26661e-07
0.00337995
5.24198e-07
0.00337993
4.35123e-07
0.00337992
3.58009e-07
0.00337991
2.91466e-07
0.0033799
2.34248e-07
0.0033799
1.85342e-07
0.0033799
1.43887e-07
0.0033799
1.09042e-07
0.0033799
7.99338e-08
0.00337991
5.58354e-08
0.00337991
3.60361e-08
0.00337992
2.02186e-08
0.00337993
7.98382e-09
0.00337993
-1.24301e-09
0.00337994
-8.025e-09
0.00337995
-1.28884e-08
0.00337995
-1.62474e-08
0.00337996
-1.83724e-08
0.00337996
-1.95807e-08
0.00337996
-2.00659e-08
0.00337996
-2.07491e-08
0.00337997
-2.04193e-08
-1.99126e-08
0.00333905
4.13346e-05
0.00334879
7.53339e-05
0.00335855
8.17973e-05
0.00336694
7.91387e-05
0.00337363
7.37861e-05
0.00337866
6.75297e-05
0.00338224
6.10198e-05
0.00338464
5.45837e-05
0.00338612
4.84107e-05
0.00338692
4.26052e-05
0.00338722
3.72053e-05
0.00338721
3.22072e-05
0.00338701
2.75847e-05
0.00338673
2.33001e-05
0.00338645
1.93112e-05
0.00338625
1.55772e-05
0.00338619
1.2061e-05
0.00338632
8.73436e-06
0.00338668
5.58151e-06
0.00338733
2.60176e-06
0.00338828
-1.91691e-07
0.00338956
-2.76663e-06
0.00339118
-5.04578e-06
0.00339311
-6.96382e-06
0.00339531
-8.42488e-06
0.00339768
-9.32971e-06
0.00340011
-9.58817e-06
0.00340242
-9.14559e-06
0.00340448
-8.00103e-06
0.00340611
-6.21815e-06
0.00340722
-3.92436e-06
0.00340771
-1.29386e-06
0.00340758
1.48938e-06
0.00340687
4.19171e-06
0.00340565
6.66959e-06
0.00340406
8.77832e-06
0.00340218
1.04645e-05
0.00340016
1.16891e-05
0.00339808
1.24733e-05
0.00339604
1.28444e-05
0.00339408
1.28789e-05
0.00339225
1.26366e-05
0.00339058
1.21815e-05
0.00338907
1.15723e-05
0.00338773
1.086e-05
0.00338654
1.00873e-05
0.00338551
9.28786e-06
0.00338462
8.48726e-06
0.00338384
7.70422e-06
0.00338318
6.95265e-06
0.00338262
6.24224e-06
0.00338214
5.57892e-06
0.00338173
4.96542e-06
0.00338139
4.40219e-06
0.0033811
3.8883e-06
0.00338086
3.42179e-06
0.00338066
3.00035e-06
0.00338049
2.62156e-06
0.00338035
2.28273e-06
0.00338024
1.98073e-06
0.00338014
1.71222e-06
0.00338007
1.47414e-06
0.00338001
1.26358e-06
0.00337996
1.07781e-06
0.00337992
9.14547e-07
0.0033799
7.71386e-07
0.00337988
6.46342e-07
0.00337986
5.37633e-07
0.00337985
4.43402e-07
0.00337985
3.61946e-07
0.00337985
2.91769e-07
0.00337985
2.31649e-07
0.00337986
1.80554e-07
0.00337986
1.37466e-07
0.00337987
1.01347e-07
0.00337988
7.12705e-08
0.00337989
4.66072e-08
0.0033799
2.66453e-08
0.00337991
1.09846e-08
0.00337992
-8.70319e-10
0.00337993
-9.81692e-09
0.00337993
-1.61275e-08
0.00337994
-2.03735e-08
0.00337995
-2.29169e-08
0.00337995
-2.4044e-08
0.00337996
-2.41973e-08
0.00337996
-2.34939e-08
0.00337996
-2.27576e-08
0.00337996
-2.09525e-08
-1.88001e-08
0.00333795
3.67196e-05
0.00334593
6.73547e-05
0.0033541
7.3622e-05
0.00336137
7.18692e-05
0.00336742
6.77366e-05
0.00337222
6.27342e-05
0.00337586
5.73765e-05
0.00337851
5.19364e-05
0.00338034
4.65834e-05
0.00338152
4.14211e-05
0.00338222
3.65034e-05
0.00338258
3.18479e-05
0.00338272
2.74492e-05
0.00338273
2.32879e-05
0.0033827
1.93352e-05
0.00338272
1.55594e-05
0.00338285
1.19312e-05
0.00338316
8.42846e-06
0.0033837
5.0396e-06
0.00338454
1.76653e-06
0.00338572
-1.37474e-06
0.00338729
-4.33808e-06
0.00338927
-7.03081e-06
0.00339167
-9.3599e-06
0.00339443
-1.11846e-05
0.00339745
-1.23492e-05
0.00340057
-1.27087e-05
0.00340359
-1.21608e-05
0.00340627
-1.06822e-05
0.0034084
-8.3515e-06
0.00340982
-5.34865e-06
0.00341045
-1.91956e-06
0.00341024
1.69966e-06
0.0034093
5.12686e-06
0.00340773
8.23923e-06
0.00340571
1.08003e-05
0.0034034
1.27815e-05
0.00340093
1.41509e-05
0.00339846
1.49443e-05
0.00339608
1.52287e-05
0.00339385
1.51112e-05
0.00339181
1.46764e-05
0.00338998
1.40096e-05
0.00338837
1.31852e-05
0.00338696
1.2265e-05
0.00338575
1.12982e-05
0.00338472
1.03223e-05
0.00338384
9.36444e-06
0.0033831
8.44392e-06
0.00338248
7.57337e-06
0.00338196
6.76056e-06
0.00338153
6.00978e-06
0.00338117
5.32211e-06
0.00338088
4.6963e-06
0.00338064
4.12961e-06
0.00338044
3.61861e-06
0.00338028
3.16e-06
0.00338015
2.75028e-06
0.00338005
2.38559e-06
0.00337997
2.06189e-06
0.0033799
1.77533e-06
0.00337986
1.52214e-06
0.00337982
1.29893e-06
0.0033798
1.10267e-06
0.00337978
9.30689e-07
0.00337977
7.80565e-07
0.00337977
6.50017e-07
0.00337977
5.36773e-07
0.00337977
4.3875e-07
0.00337978
3.54243e-07
0.00337979
2.81821e-07
0.0033798
2.20154e-07
0.00337981
1.67984e-07
0.00337983
1.24087e-07
0.00337984
8.74245e-08
0.00337986
5.71739e-08
0.00337987
3.26834e-08
0.00337988
1.32589e-08
0.0033799
-1.78197e-09
0.00337991
-1.29616e-08
0.00337992
-2.11111e-08
0.00337993
-2.64885e-08
0.00337994
-2.96282e-08
0.00337995
-3.09635e-08
0.00337995
-3.08537e-08
0.00337996
-2.95974e-08
0.00337996
-2.73687e-08
0.00337997
-2.48219e-08
0.00337997
-2.12329e-08
-1.71958e-08
0.00333714
3.29164e-05
0.00334378
6.07087e-05
0.00335071
6.6696e-05
0.00335702
6.55565e-05
0.00336245
6.23112e-05
0.00336692
5.82638e-05
0.00337047
5.38281e-05
0.00337318
4.92188e-05
0.00337519
4.45783e-05
0.00337661
4.00009e-05
0.00337757
3.5544e-05
0.00337818
3.12357e-05
0.00337855
2.70815e-05
0.00337876
2.30708e-05
0.00337892
1.91827e-05
0.00337908
1.53921e-05
0.00337934
1.16743e-05
0.00337976
8.00839e-06
0.00338042
4.38101e-06
0.0033814
7.91238e-07
0.00338277
-2.74614e-06
0.0033846
-6.17106e-06
0.00338696
-9.39247e-06
0.00338987
-1.22714e-05
0.0033933
-1.46115e-05
0.00339713
-1.61786e-05
0.00340115
-1.67343e-05
0.00340509
-1.60964e-05
0.00340861
-1.41979e-05
0.00341139
-1.1138e-05
0.00341322
-7.17902e-06
0.00341399
-2.68237e-06
0.00341363
2.05555e-06
0.00341234
6.41875e-06
0.00341028
1.02965e-05
0.00340767
1.3415e-05
0.00340474
1.5704e-05
0.00340172
1.71781e-05
0.00339876
1.78997e-05
0.00339597
1.8017e-05
0.00339343
1.7658e-05
0.00339115
1.69474e-05
0.00338917
1.59962e-05
0.00338746
1.48958e-05
0.003386
1.37186e-05
0.00338478
1.252e-05
0.00338376
1.134e-05
0.00338292
1.02059e-05
0.00338223
9.13484e-06
0.00338167
8.1372e-06
0.00338121
7.21813e-06
0.00338084
6.37891e-06
0.00338055
5.61776e-06
0.00338031
4.93124e-06
0.00338013
4.31479e-06
0.00337998
3.76317e-06
0.00337987
3.27128e-06
0.00337979
2.83425e-06
0.00337972
2.44733e-06
0.00337968
2.10579e-06
0.00337965
1.80479e-06
0.00337963
1.53985e-06
0.00337962
1.30706e-06
0.00337962
1.10315e-06
0.00337963
9.25231e-07
0.00337964
7.70517e-07
0.00337965
6.36358e-07
0.00337967
5.20338e-07
0.00337969
4.20329e-07
0.00337971
3.3456e-07
0.00337973
2.61404e-07
0.00337975
1.99346e-07
0.00337977
1.47015e-07
0.00337979
1.03234e-07
0.00337981
6.70239e-08
0.00337983
3.75344e-08
0.00337985
1.39808e-08
0.00337987
-4.39961e-09
0.00337988
-1.83278e-08
0.0033799
-2.84288e-08
0.00337991
-3.52118e-08
0.00337993
-3.91686e-08
0.00337994
-4.08133e-08
0.00337995
-4.06602e-08
0.00337996
-3.88675e-08
0.00337996
-3.58455e-08
0.00337997
-3.17076e-08
0.00337997
-2.70661e-08
0.00337997
-2.1392e-08
-1.5336e-08
0.00333651
2.9736e-05
0.00334213
5.50946e-05
0.00334806
6.07647e-05
0.00335357
6.00469e-05
0.00335842
5.74645e-05
0.00336252
5.41568e-05
0.00336589
5.04609e-05
0.00336857
4.65427e-05
0.00337063
4.25169e-05
0.00337216
3.84655e-05
0.00337326
3.44422e-05
0.00337402
3.04758e-05
0.00337453
2.65749e-05
0.00337487
2.27327e-05
0.00337512
1.89327e-05
0.00337536
1.51525e-05
0.00337567
1.13669e-05
0.00337612
7.55063e-06
0.00337682
3.68298e-06
0.00337786
-2.45939e-07
0.00337934
-4.22798e-06
0.00338139
-8.21864e-06
0.00338411
-1.21096e-05
0.00338757
-1.5736e-05
0.00339178
-1.88259e-05
0.00339663
-2.10256e-05
0.00340185
-2.19517e-05
0.00340703
-2.12764e-05
0.00341168
-1.88493e-05
0.00341534
-1.47953e-05
0.00341768
-9.52092e-06
0.00341857
-3.56762e-06
0.00341798
2.63655e-06
0.00341614
8.25807e-06
0.00341334
1.30989e-05
0.00340991
1.68448e-05
0.00340619
1.94298e-05
0.00340245
2.09152e-05
0.00339889
2.14555e-05
0.00339563
2.12774e-05
0.00339274
2.05552e-05
0.00339022
1.94602e-05
0.00338809
1.81336e-05
0.0033863
1.6685e-05
0.00338482
1.51965e-05
0.00338361
1.37265e-05
0.00338264
1.23147e-05
0.00338186
1.09858e-05
0.00338124
9.75367e-06
0.00338075
8.62405e-06
0.00338037
7.59738e-06
0.00338008
6.6708e-06
0.00337986
5.83924e-06
0.00337969
5.09631e-06
0.00337957
4.43486e-06
0.00337949
3.84767e-06
0.00337943
3.32778e-06
0.0033794
2.86874e-06
0.00337938
2.46449e-06
0.00337938
2.10927e-06
0.00337938
1.79765e-06
0.0033794
1.5247e-06
0.00337942
1.28607e-06
0.00337945
1.07796e-06
0.00337947
8.96965e-07
0.0033795
7.4e-07
0.00337954
6.04374e-07
0.00337957
4.87698e-07
0.0033796
3.87733e-07
0.00337963
3.02425e-07
0.00337967
2.29926e-07
0.0033797
1.68655e-07
0.00337973
1.17295e-07
0.00337975
7.47516e-08
0.00337978
4.00017e-08
0.00337981
1.20843e-08
0.00337983
-9.84546e-09
0.00337985
-2.65709e-08
0.00337987
-3.88002e-08
0.00337989
-4.71195e-08
0.00337991
-5.20769e-08
0.00337993
-5.425e-08
0.00337994
-5.40842e-08
0.00337995
-5.19722e-08
0.00337996
-4.81812e-08
0.00337997
-4.29864e-08
0.00337997
-3.66108e-08
0.00337997
-2.96515e-08
0.00337997
-2.17145e-08
-1.34064e-08
0.00333602
2.70455e-05
0.00334083
5.02898e-05
0.00334596
5.56368e-05
0.00335079
5.52161e-05
0.00335511
5.31399e-05
0.00335885
5.04149e-05
0.003362
4.7318e-05
0.00336456
4.39783e-05
0.00336659
4.04861e-05
0.00336815
3.69084e-05
0.0033693
3.32901e-05
0.00337012
2.96555e-05
0.00337068
2.6012e-05
0.00337106
2.23539e-05
0.00337133
1.86649e-05
0.00337156
1.49211e-05
0.00337184
1.10924e-05
0.00337224
7.14492e-06
0.00337288
3.04495e-06
0.00337387
-1.2331e-06
0.00337535
-5.70639e-06
0.0033775
-1.0374e-05
0.00338051
-1.51136e-05
0.00338453
-1.97609e-05
0.00338966
-2.39524e-05
0.00339579
-2.71625e-05
0.00340261
-2.87689e-05
0.00340952
-2.81851e-05
0.00341576
-2.5088e-05
0.0034206
-1.96322e-05
0.00342358
-1.25033e-05
0.00342456
-4.5523e-06
0.00342357
3.63217e-06
0.00342089
1.09387e-05
0.00341698
1.70068e-05
0.00341243
2.13902e-05
0.00340767
2.41974e-05
0.00340303
2.55517e-05
0.00339874
2.57393e-05
0.00339494
2.50782e-05
0.00339167
2.38265e-05
0.00338892
2.22083e-05
0.00338666
2.03972e-05
0.00338483
1.85187e-05
0.00338336
1.66598e-05
0.00338221
1.48782e-05
0.00338132
1.32095e-05
0.00338063
1.1672e-05
0.00338011
1.02723e-05
0.00337973
9.00938e-06
0.00337945
7.8776e-06
0.00337925
6.86862e-06
0.00337912
5.97284e-06
0.00337903
5.18019e-06
0.00337899
4.48071e-06
0.00337897
3.86489e-06
0.00337897
3.32367e-06
0.00337899
2.84874e-06
0.00337902
2.43274e-06
0.00337906
2.06906e-06
0.00337911
1.75168e-06
0.00337916
1.47513e-06
0.00337921
1.23453e-06
0.00337926
1.02556e-06
0.00337932
8.44492e-07
0.00337937
6.88131e-07
0.00337942
5.53702e-07
0.00337947
4.38651e-07
0.00337952
3.40569e-07
0.00337956
2.57285e-07
0.0033796
1.86898e-07
0.00337964
1.27852e-07
0.00337968
7.88103e-08
0.00337972
3.861e-08
0.00337975
6.18687e-09
0.00337979
-1.93762e-08
0.00337981
-3.89641e-08
0.00337984
-5.33317e-08
0.00337987
-6.31636e-08
0.00337989
-6.91023e-08
0.00337991
-7.18865e-08
0.00337993
-7.17937e-08
0.00337994
-6.93872e-08
0.00337995
-6.49391e-08
0.00337996
-5.87622e-08
0.00337997
-5.1082e-08
0.00337998
-4.23114e-08
0.00337998
-3.27846e-08
0.00337998
-2.23815e-08
-1.15732e-08
0.00333563
2.47483e-05
0.00333979
4.61319e-05
0.00334426
5.11641e-05
0.00334852
5.09587e-05
0.00335238
4.92769e-05
0.00335578
4.70194e-05
0.00335868
4.44169e-05
0.00336109
4.15695e-05
0.00336303
3.85461e-05
0.00336454
3.53978e-05
0.00336567
3.21587e-05