/*--------------------------------*- C++ -*----------------------------------*\
| =========                 |                                                 |
| \\      /  F ield         | OpenFOAM: The Open Source CFD Toolbox           |
|  \\    /   O peration     | Version:  v1806                                 |
|   \\  /    A nd           | Web:      www.OpenFOAM.com                      |
|    \\/     M anipulation  |                                                 |
\*---------------------------------------------------------------------------*/
FoamFile
{
    version     2.0;
    format      ascii;
    class       volVectorField;
    location    "0.03";
    object      U;
}
// * * * * * * * * * * * * * * * * * * * * * * * * * * * * * * * * * * * * * //

dimensions      [0 1 -1 0 0 0 0];


internalField   nonuniform List<vector> 
5400
(
(0.813277 0.0803246 0)
(0.841615 0.0656069 0)
(0.762045 0.0347803 0)
(0.704895 0.0166447 0)
(0.683793 0.00839027 0)
(0.673148 0.00483655 0)
(0.665622 0.00308169 0)
(0.660397 0.0021061 0)
(0.656711 0.00152534 0)
(0.65397 0.00115116 0)
(0.651859 0.000892244 0)
(0.650204 0.00070186 0)
(0.648888 0.000557538 0)
(0.647837 0.000444384 0)
(0.646998 0.000352621 -3.9629e-36)
(0.64633 0.000278356 3.9629e-36)
(0.645807 0.000214937 0)
(0.645403 0.000161455 0)
(0.645099 0.000117455 0)
(0.644886 7.83269e-05 0)
(0.644744 4.60723e-05 0)
(0.644663 2.12235e-05 0)
(0.644635 -5.96377e-07 0)
(0.644644 -1.71198e-05 0)
(0.644679 -2.53322e-05 0)
(0.644736 -2.96819e-05 0)
(0.644799 -3.13525e-05 0)
(0.644855 -2.64442e-05 0)
(0.644903 -1.5817e-05 0)
(0.644935 -3.94049e-06 0)
(0.644937 9.5021e-06 0)
(0.644907 2.62948e-05 0)
(0.644848 4.50316e-05 0)
(0.644754 6.21065e-05 0)
(0.644623 7.6834e-05 0)
(0.644458 9.10569e-05 0)
(0.644268 0.000104957 0)
(0.644054 0.000115948 0)
(0.643819 0.000122978 0)
(0.643567 0.000127339 0)
(0.643307 0.000130338 0)
(0.643046 0.000131677 0)
(0.642785 0.000130322 0)
(0.642526 0.000126299 0)
(0.642273 0.000120856 0)
(0.642033 0.000115052 0)
(0.641806 0.000109068 0)
(0.641593 0.00010227 0)
(0.641393 9.44143e-05 0)
(0.641206 8.61316e-05 0)
(0.641036 7.83571e-05 0)
(0.640882 7.14955e-05 0)
(0.640743 6.51585e-05 0)
(0.640617 5.87345e-05 0)
(0.640502 5.21094e-05 0)
(0.6404 4.5792e-05 0)
(0.640309 4.03125e-05 0)
(0.64023 3.57408e-05 0)
(0.64016 3.17259e-05 0)
(0.640099 2.79543e-05 0)
(0.640045 2.42607e-05 0)
(0.639998 2.06983e-05 0)
(0.639956 1.74864e-05 0)
(0.639921 1.48333e-05 0)
(0.639892 1.2753e-05 0)
(0.639867 1.10629e-05 0)
(0.639846 9.55564e-06 0)
(0.639828 8.04059e-06 0)
(0.639812 6.48781e-06 0)
(0.639799 5.05107e-06 0)
(0.639789 3.89543e-06 0)
(0.63978 3.07242e-06 0)
(0.639774 2.49569e-06 0)
(0.639769 2.05046e-06 0)
(0.639765 1.66183e-06 0)
(0.639762 1.26699e-06 0)
(0.63976 8.31671e-07 0)
(0.639758 3.85394e-07 0)
(0.639757 -2.27382e-09 0)
(0.639756 -2.61278e-07 0)
(0.639757 -3.60417e-07 0)
(0.639757 -3.31714e-07 0)
(0.639757 -2.44675e-07 0)
(0.639758 -1.52431e-07 0)
(0.639758 -8.42828e-08 0)
(0.639759 8.30932e-09 0)
(0.639759 4.22928e-07 0)
(0.639758 8.7676e-07 0)
(0.639764 5.67957e-06 0)
(0.639736 7.56114e-06 0)
(0.935847 0.120959 0)
(1.06306 0.113659 0)
(1.05621 0.0698027 0)
(1.02361 0.0390761 0)
(1.01123 0.0226508 0)
(1.00358 0.014287 0)
(0.996354 0.00963921 0)
(0.990661 0.00684114 0)
(0.986387 0.0050641 0)
(0.983082 0.00386871 0)
(0.980473 0.00302205 0)
(0.978392 0.0023938 0)
(0.976718 0.00191232 0)
(0.975362 0.00153429 0)
(0.974269 0.00122624 0)
(0.973384 0.000974067 0)
(0.972682 0.000763135 0)
(0.972133 0.000581712 0)
(0.971708 0.000429911 0)
(0.9714 0.000300365 0)
(0.971189 0.000187777 0)
(0.971053 9.6663e-05 0)
(0.970991 2.4605e-05 0)
(0.970985 -3.29704e-05 0)
(0.971017 -7.32392e-05 0)
(0.971081 -9.49785e-05 0)
(0.971163 -0.000100984 0)
(0.971246 -9.26834e-05 0)
(0.971323 -7.06138e-05 0)
(0.971386 -3.65515e-05 0)
(0.971419 7.46779e-06 0)
(0.971419 5.84127e-05 0)
(0.971385 0.000112559 0)
(0.97131 0.000166708 0)
(0.97119 0.000219083 0)
(0.97103 0.000268471 0)
(0.970838 0.000312428 0)
(0.970615 0.000348086 0)
(0.970362 0.000374969 0)
(0.970086 0.000394344 0)
(0.969799 0.000406777 0)
(0.969506 0.000411682 0)
(0.969209 0.00040852 0)
(0.968911 0.000398869 0)
(0.968619 0.000385269 0)
(0.968339 0.000369159 0)
(0.968073 0.0003504 0)
(0.967821 0.000328507 0)
(0.967582 0.000304485 0)
(0.967358 0.000280264 0)
(0.967153 0.000257182 0)
(0.966966 0.000235255 0)
(0.966798 0.000213884 0)
(0.966643 0.000192671 0)
(0.966501 0.000172062 0)
(0.966373 0.000152892 0)
(0.96626 0.000135719 0)
(0.96616 0.00012054 0)
(0.966073 0.000106866 0)
(0.965996 9.40636e-05 0)
(0.965926 8.19106e-05 0)
(0.965865 7.06436e-05 0)
(0.96581 6.07174e-05 0)
(0.965763 5.23456e-05 0)
(0.965724 4.53282e-05 0)
(0.965691 3.91604e-05 0)
(0.965663 3.34451e-05 0)
(0.965638 2.80371e-05 0)
(0.965616 2.30989e-05 0)
(0.965597 1.88366e-05 0)
(0.965581 1.53307e-05 0)
(0.965568 1.2539e-05 0)
(0.965558 1.03038e-05 0)
(0.965551 8.43429e-06 0)
(0.965545 6.76417e-06 0)
(0.965539 5.19262e-06 0)
(0.965535 3.69517e-06 0)
(0.965531 2.34801e-06 0)
(0.965528 1.27109e-06 0)
(0.965526 5.46191e-07 0)
(0.965524 1.54621e-07 0)
(0.965524 -1.24435e-08 0)
(0.965524 -8.56199e-08 0)
(0.965524 -1.42378e-07 0)
(0.965524 -1.92791e-07 0)
(0.965524 -1.38964e-07 0)
(0.965525 5.04463e-07 0)
(0.965527 6.08692e-07 0)
(0.965522 7.09977e-06 0)
(0.965525 9.9422e-06 0)
(0.935817 0.0669504 0)
(1.06156 0.0835926 0)
(1.07058 0.063912 0)
(1.05029 0.0438824 0)
(1.04537 0.0299555 0)
(1.04194 0.0209926 0)
(1.03702 0.0151658 0)
(1.03263 0.0112722 0)
(1.02912 0.00859507 0)
(1.02627 0.00669094 0)
(1.02393 0.00529256 0)
(1.02201 0.00423424 0)
(1.02045 0.00340766 0)
(1.01916 0.00275075 0)
(1.01811 0.00221355 0)
(1.01726 0.00176574 0)
(1.01658 0.0013928 0)
(1.01604 0.00107255 0)
(1.01563 0.000795022 0)
(1.01534 0.000560575 0)
(1.01513 0.000361083 0)
(1.01502 0.000191493 0)
(1.01497 5.36573e-05 0)
(1.01498 -5.30274e-05 0)
(1.01503 -0.000130176 0)
(1.01511 -0.000176761 0)
(1.01522 -0.000194656 0)
(1.01531 -0.000186325 0)
(1.01541 -0.000152155 0)
(1.0155 -9.45266e-05 0)
(1.01555 -1.94234e-05 0)
(1.01555 6.73938e-05 0)
(1.01553 0.000161815 0)
(1.01546 0.000260208 0)
(1.01534 0.000357206 0)
(1.01518 0.000446452 0)
(1.01498 0.000524436 0)
(1.01475 0.000590065 0)
(1.01449 0.000642691 0)
(1.0142 0.000681147 0)
(1.0139 0.000704558 0)
(1.0136 0.00071339 0)
(1.01329 0.00070987 0)
(1.01299 0.000696962 0)
(1.01269 0.000676396 0)
(1.0124 0.000648905 0)
(1.01213 0.000615098 0)
(1.01187 0.000576907 0)
(1.01162 0.000536746 0)
(1.0114 0.000496544 0)
(1.01119 0.000456946 0)
(1.011 0.000417865 0)
(1.01083 0.000379344 0)
(1.01067 0.000341865 0)
(1.01053 0.000306421 0)
(1.0104 0.000273723 0)
(1.01029 0.000244008 0)
(1.01019 0.000216905 0)
(1.0101 0.000191973 0)
(1.01002 0.000168806 0)
(1.00995 0.000147393 0)
(1.00989 0.000128077 0)
(1.00984 0.000111104 0)
(1.00979 9.63252e-05 0)
(1.00975 8.33219e-05 0)
(1.00972 7.16677e-05 0)
(1.00969 6.10636e-05 0)
(1.00966 5.15214e-05 0)
(1.00964 4.31447e-05 0)
(1.00962 3.59062e-05 0)
(1.00961 2.97358e-05 0)
(1.00959 2.45361e-05 0)
(1.00958 2.01745e-05 0)
(1.00958 1.64586e-05 0)
(1.00957 1.31857e-05 0)
(1.00956 1.02417e-05 0)
(1.00956 7.62665e-06 0)
(1.00956 5.41397e-06 0)
(1.00955 3.67649e-06 0)
(1.00955 2.39719e-06 0)
(1.00955 1.48776e-06 0)
(1.00955 8.38727e-07 0)
(1.00955 3.66271e-07 0)
(1.00955 7.2908e-10 0)
(1.00955 -2.59354e-07 0)
(1.00955 -3.5684e-07 0)
(1.00955 -5.18732e-08 0)
(1.00955 -1.28899e-07 0)
(1.00955 2.338e-06 0)
(1.00956 2.90326e-06 0)
(0.93046 0.0456018 0)
(1.04474 0.0664986 0)
(1.05464 0.0577187 0)
(1.03919 0.0443191 0)
(1.03881 0.0330775 0)
(1.03875 0.0247658 0)
(1.03612 0.0187995 0)
(1.03324 0.0144983 0)
(1.03073 0.0113547 0)
(1.02855 0.00901236 0)
(1.02666 0.0072289 0)
(1.02506 0.00584549 0)
(1.02372 0.00474281 0)
(1.0226 0.00384842 0)
(1.02166 0.00311479 5.1201e-34)
(1.0209 0.00249597 -5.1201e-34)
(1.0203 0.00196812 0)
(1.01982 0.00151765 0)
(1.01945 0.0011279 0)
(1.0192 0.000790242 0)
(1.01904 0.000501135 0)
(1.01895 0.000256181 0)
(1.01894 5.45807e-05 0)
(1.01899 -0.000102261 0)
(1.01907 -0.000215304 0)
(1.01919 -0.000286924 0)
(1.01933 -0.000316345 0)
(1.01946 -0.000303231 0)
(1.01959 -0.000251664 0)
(1.0197 -0.000168699 0)
(1.01976 -6.02284e-05 0)
(1.01979 6.91349e-05 0)
(1.01977 0.000212318 0)
(1.0197 0.000359187 0)
(1.01958 0.000500853 0)
(1.0194 0.000631596 0)
(1.01919 0.000748358 0)
(1.01895 0.000847615 0)
(1.01867 0.000925521 0)
(1.01837 0.000980522 0)
(1.01805 0.00101337 0)
(1.01773 0.00102663 0)
(1.01741 0.00102335 0)
(1.01709 0.00100549 0)
(1.01679 0.000974606 0)
(1.01649 0.000932773 0)
(1.01621 0.000882968 0)
(1.01595 0.000828543 0)
(1.0157 0.000771782 0)
(1.01548 0.000713993 0)
(1.01527 0.000656018 0)
(1.01508 0.000598719 0)
(1.01491 0.000542934 0)
(1.01475 0.000489544 0)
(1.01461 0.000439371 0)
(1.01449 0.000392976 0)
(1.01438 0.000350324 0)
(1.01428 0.000311036 0)
(1.01419 0.000274759 0)
(1.01412 0.000241429 0)
(1.01405 0.000211161 0)
(1.01399 0.000184055 0)
(1.01394 0.000159951 0)
(1.0139 0.000138525 0)
(1.01386 0.000119456 0)
(1.01383 0.000102527 0)
(1.0138 8.75165e-05 0)
(1.01378 7.42372e-05 0)
(1.01375 6.24857e-05 0)
(1.01374 5.21658e-05 0)
(1.01372 4.32528e-05 0)
(1.01371 3.56637e-05 0)
(1.0137 2.92304e-05 0)
(1.01369 2.37347e-05 0)
(1.01369 1.89707e-05 0)
(1.01368 1.48115e-05 0)
(1.01368 1.12348e-05 0)
(1.01368 8.24855e-06 0)
(1.01367 5.82457e-06 0)
(1.01367 3.89847e-06 0)
(1.01367 2.40608e-06 0)
(1.01367 1.28758e-06 0)
(1.01367 4.75979e-07 0)
(1.01367 -1.00479e-07 0)
(1.01367 -5.03433e-07 0)
(1.01367 -7.81877e-07 0)
(1.01367 -8.49983e-07 0)
(1.01368 -1.11064e-06 0)
(1.01367 -4.85897e-07 0)
(1.01368 -9.87744e-07 0)
(0.927784 0.0333976 0)
(1.03472 0.0534678 0)
(1.04249 0.0503393 0)
(1.0284 0.0416591 0)
(1.03025 0.033188 0)
(1.03229 0.0262053 0)
(1.03135 0.0207473 0)
(1.02975 0.0165365 0)
(1.02816 0.0132839 0)
(1.02664 0.0107541 0)
(1.02525 0.00875549 0)
(1.024 0.00715815 0)
(1.02291 0.00586349 0)
(1.02199 0.00479042 0)
(1.02121 0.00389099 0)
(1.02056 0.00312856 0)
(1.02004 0.00247142 0)
(1.01964 0.00190133 0)
(1.01934 0.001405 0)
(1.01914 0.000971036 0)
(1.01903 0.000595487 0)
(1.019 0.000277751 0)
(1.01904 1.52859e-05 0)
(1.01913 -0.000192843 0)
(1.01926 -0.000345641 0)
(1.01944 -0.000439609 0)
(1.01962 -0.00047494 0)
(1.0198 -0.000455727 0)
(1.01997 -0.00038679 0)
(1.02011 -0.000272207 0)
(1.02021 -0.000118763 0)
(1.02025 6.2691e-05 0)
(1.02024 0.000259165 0)
(1.02017 0.000458802 0)
(1.02004 0.000652475 0)
(1.01985 0.000833008 0)
(1.01962 0.000992835 0)
(1.01935 0.00112555 0)
(1.01905 0.0012279 0)
(1.01872 0.00129955 0)
(1.01838 0.00134221 0)
(1.01804 0.00135896 0)
(1.0177 0.00135251 0)
(1.01737 0.0013254 0)
(1.01704 0.00128101 0)
(1.01674 0.00122336 0)
(1.01645 0.00115656 0)
(1.01618 0.00108392 0)
(1.01594 0.00100802 0)
(1.01571 0.000930694 0)
(1.0155 0.000853423 0)
(1.01531 0.000777461 0)
(1.01515 0.000704051 0)
(1.01499 0.00063439 0)
(1.01486 0.000569247 0)
(1.01474 0.00050885 0)
(1.01463 0.000453023 0)
(1.01454 0.000401565 0)
(1.01445 0.000354259 0)
(1.01438 0.0003111 0)
(1.01432 0.000272118 0)
(1.01426 0.000237159 0)
(1.01421 0.000205972 0)
(1.01417 0.000178263 0)
(1.01414 0.000153684 0)
(1.01411 0.000131859 0)
(1.01408 0.000112467 0)
(1.01406 9.52488e-05 0)
(1.01404 8.00591e-05 0)
(1.01403 6.68465e-05 0)
(1.01401 5.54973e-05 0)
(1.014 4.57918e-05 0)
(1.01399 3.74647e-05 0)
(1.01399 3.02877e-05 0)
(1.01398 2.40847e-05 0)
(1.01398 1.87516e-05 0)
(1.01398 1.42441e-05 0)
(1.01397 1.04977e-05 0)
(1.01397 7.43999e-06 0)
(1.01397 5.00387e-06 0)
(1.01397 3.10745e-06 0)
(1.01397 1.64932e-06 0)
(1.01397 5.20353e-07 0)
(1.01397 -3.28941e-07 0)
(1.01397 -9.53151e-07 0)
(1.01397 -1.45061e-06 0)
(1.01397 -1.82937e-06 0)
(1.01398 -2.40732e-06 0)
(1.01397 -2.67168e-06 0)
(1.01398 -3.5351e-06 0)
(0.926542 0.0259399 0)
(1.02933 0.0437873 0)
(1.03488 0.0434991 0)
(1.02071 0.0379727 0)
(1.02344 0.0317766 0)
(1.02662 0.0261795 0)
(1.02678 0.0214732 0)
(1.02611 0.0176204 0)
(1.02528 0.0144871 0)
(1.02434 0.0119474 0)
(1.02339 0.00987754 0)
(1.0225 0.00816971 0)
(1.02167 0.00674951 0)
(1.02094 0.00555379 0)
(1.02032 0.00453267 0)
(1.0198 0.00365297 0)
(1.01939 0.00288642 0)
(1.01907 0.00221074 0)
(1.01884 0.00161477 0)
(1.01871 0.00109265 0)
(1.01866 0.000637625 0)
(1.01869 0.000244781 0)
(1.01879 -8.39385e-05 0)
(1.01895 -0.000343261 0)
(1.01915 -0.000531651 0)
(1.01938 -0.000647256 0)
(1.01963 -0.000690905 0)
(1.01987 -0.000663422 0)
(1.02009 -0.000567085 0)
(1.02028 -0.000409211 0)
(1.02042 -0.000202206 0)
(1.02048 3.87233e-05 0)
(1.02048 0.000298551 0)
(1.02041 0.000563626 0)
(1.02027 0.000820769 0)
(1.02006 0.0010576 0)
(1.0198 0.00126345 0)
(1.0195 0.00143157 0)
(1.01916 0.00155971 0)
(1.0188 0.00164797 0)
(1.01843 0.00169867 0)
(1.01806 0.00171507 0)
(1.0177 0.00170095 0)
(1.01734 0.00166088 0)
(1.017 0.00160002 0)
(1.01668 0.00152367 0)
(1.01639 0.00143669 0)
(1.01612 0.00134301 0)
(1.01587 0.00124567 0)
(1.01564 0.00114697 0)
(1.01543 0.00104895 0)
(1.01525 0.000953389 0)
(1.01508 0.000861861 0)
(1.01494 0.00077553 0)
(1.01481 0.000694952 0)
(1.01469 0.000620118 0)
(1.01459 0.000550987 0)
(1.0145 0.000487468 0)
(1.01442 0.000429423 0)
(1.01435 0.000376749 0)
(1.0143 0.000329252 0)
(1.01424 0.000286649 0)
(1.0142 0.000248674 0)
(1.01416 0.000214969 0)
(1.01413 0.000185062 0)
(1.0141 0.000158502 0)
(1.01408 0.000134937 0)
(1.01406 0.000114106 0)
(1.01404 9.58242e-05 0)
(1.01403 7.99444e-05 0)
(1.01402 6.62692e-05 0)
(1.01401 5.45173e-05 0)
(1.014 4.44037e-05 0)
(1.014 3.5702e-05 0)
(1.01399 2.82479e-05 0)
(1.01399 2.19067e-05 0)
(1.01399 1.65657e-05 0)
(1.01399 1.21182e-05 0)
(1.01399 8.48653e-06 0)
(1.01398 5.59132e-06 0)
(1.01398 3.32575e-06 0)
(1.01399 1.58116e-06 0)
(1.01399 2.32018e-07 0)
(1.01399 -8.09244e-07 0)
(1.01399 -1.59965e-06 0)
(1.01399 -2.24055e-06 0)
(1.01399 -2.80008e-06 0)
(1.014 -3.56346e-06 0)
(1.01398 -4.1322e-06 0)
(1.01399 -4.99743e-06 0)
(0.925923 0.0210891 0)
(1.02628 0.0366994 0)
(1.03006 0.0377479 0)
(1.01535 0.0342134 0)
(1.01827 0.0297071 0)
(1.02198 0.0253154 0)
(1.02281 0.0213789 0)
(1.02278 0.0179853 0)
(1.02251 0.0151051 0)
(1.02205 0.0126736 0)
(1.02149 0.0106256 0)
(1.02089 0.00889022 0)
(1.02032 0.00740938 0)
(1.01979 0.0061384 0)
(1.01933 0.00503467 1.02498e-33)
(1.01893 0.00406324 -1.02498e-33)
(1.01862 0.00320226 0)
(1.01839 0.00243778 0)
(1.01824 0.0017573 0)
(1.01818 0.00114999 0)
(1.0182 0.000610826 0)
(1.01829 0.000141629 0)
(1.01847 -0.000249078 0)
(1.0187 -0.000561633 0)
(1.01898 -0.000790412 0)
(1.0193 -0.000931551 0)
(1.01962 -0.000980755 0)
(1.01994 -0.000936676 0)
(1.02024 -0.000803955 0)
(1.02049 -0.000593911 0)
(1.02067 -0.000322164 0)
(1.02077 -6.55475e-06 0)
(1.02078 0.000334005 0)
(1.02071 0.000679725 0)
(1.02055 0.00101125 0)
(1.02031 0.00131183 0)
(1.02001 0.0015693 0)
(1.01966 0.0017768 0)
(1.01928 0.00193155 0)
(1.01887 0.00203449 0)
(1.01846 0.00208944 0)
(1.01806 0.00210071 0)
(1.01766 0.00207409 0)
(1.01728 0.00201636 0)
(1.01692 0.00193455 0)
(1.01659 0.00183532 0)
(1.01629 0.00172431 0)
(1.01601 0.00160609 0)
(1.01576 0.00148431 0)
(1.01553 0.00136201 0)
(1.01533 0.00124175 0)
(1.01515 0.00112564 0)
(1.01499 0.00101523 0)
(1.01485 0.000911479 0)
(1.01472 0.000814807 0)
(1.01461 0.000725343 0)
(1.01452 0.000643023 0)
(1.01443 0.000567703 0)
(1.01436 0.000499209 0)
(1.0143 0.000437265 0)
(1.01425 0.000381549 0)
(1.0142 0.000331708 0)
(1.01416 0.000287333 0)
(1.01413 0.000247912 0)
(1.0141 0.000212925 0)
(1.01408 0.000181904 0)
(1.01406 0.000154487 0)
(1.01404 0.000130377 0)
(1.01403 0.000109304 0)
(1.01401 9.10151e-05 0)
(1.01401 7.52089e-05 0)
(1.014 6.15798e-05 0)
(1.01399 4.98603e-05 0)
(1.01399 3.98251e-05 0)
(1.01399 3.12791e-05 0)
(1.01399 2.40501e-05 0)
(1.01398 1.79874e-05 0)
(1.01398 1.29718e-05 0)
(1.01398 8.88283e-06 0)
(1.01398 5.60562e-06 0)
(1.01398 3.02615e-06 0)
(1.01398 1.0435e-06 0)
(1.01399 -4.45467e-07 0)
(1.01399 -1.56759e-06 0)
(1.01399 -2.44284e-06 0)
(1.01399 -3.15725e-06 0)
(1.01399 -3.7588e-06 0)
(1.014 -4.52287e-06 0)
(1.01398 -5.08741e-06 0)
(1.014 -5.78492e-06 0)
(0.925582 0.0176944 0)
(1.02443 0.0313732 0)
(1.02689 0.033021 0)
(1.01156 0.0307365 0)
(1.01437 0.0274339 0)
(1.01827 0.0240093 0)
(1.01945 0.0207763 0)
(1.01984 0.0178546 0)
(1.01997 0.0152758 0)
(1.01986 0.0130199 0)
(1.01961 0.0110566 0)
(1.01928 0.00935225 0)
(1.01892 0.00786543 0)
(1.01857 0.0065564 0)
(1.01825 0.00539444 0)
(1.01797 0.0043573 0)
(1.01776 0.00342688 0)
(1.01762 0.0025864 0)
(1.01755 0.00182286 0)
(1.01757 0.00113084 0)
(1.01766 0.000511902 0)
(1.01783 -2.91397e-05 0)
(1.01809 -0.000489872 0)
(1.01841 -0.000864371 0)
(1.01878 -0.00114049 0)
(1.01919 -0.00130824 0)
(1.01963 -0.00136019 0)
(1.02005 -0.0012947 0)
(1.02044 -0.00111777 0)
(1.02077 -0.000842261 0)
(1.02101 -0.000486853 0)
(1.02114 -7.47678e-05 0)
(1.02117 0.00036737 0)
(1.02109 0.000811281 0)
(1.0209 0.00123134 0)
(1.02062 0.00160678 0)
(1.02027 0.00192354 0)
(1.01986 0.00217393 0)
(1.01942 0.00235512 0)
(1.01896 0.00246971 0)
(1.01849 0.00252336 0)
(1.01804 0.0025231 0)
(1.01761 0.00247744 0)
(1.0172 0.00239574 0)
(1.01682 0.00228708 0)
(1.01647 0.00215948 0)
(1.01616 0.00201954 0)
(1.01588 0.00187261 0)
(1.01563 0.00172309 0)
(1.0154 0.00157474 0)
(1.0152 0.00143053 0)
(1.01502 0.00129263 0)
(1.01487 0.00116237 0)
(1.01474 0.00104049 0)
(1.01462 0.000927315 0)
(1.01452 0.000823091 0)
(1.01443 0.000727767 0)
(1.01436 0.000641031 0)
(1.01429 0.000562489 0)
(1.01424 0.0004917 0)
(1.01419 0.000428199 0)
(1.01415 0.000371499 0)
(1.01412 0.000321057 0)
(1.01409 0.000276306 0)
(1.01406 0.00023666 0)
(1.01404 0.000201602 0)
(1.01403 0.000170713 0)
(1.01402 0.000143634 0)
(1.01401 0.000120061 0)
(1.014 9.96176e-05 0)
(1.01399 8.19351e-05 0)
(1.01399 6.67028e-05 0)
(1.01398 5.36374e-05 0)
(1.01398 4.24761e-05 0)
(1.01398 3.29968e-05 0)
(1.01398 2.50154e-05 0)
(1.01398 1.83664e-05 0)
(1.01398 1.28927e-05 0)
(1.01398 8.44868e-06 0)
(1.01398 4.9081e-06 0)
(1.01398 2.15407e-06 0)
(1.01398 5.56827e-08 0)
(1.01398 -1.49169e-06 0)
(1.01399 -2.62803e-06 0)
(1.01399 -3.49299e-06 0)
(1.01399 -4.17748e-06 0)
(1.01399 -4.6892e-06 0)
(1.014 -5.30291e-06 0)
(1.01398 -5.69085e-06 0)
(1.014 -6.11328e-06 0)
(0.925375 0.0151808 0)
(1.02324 0.0272612 0)
(1.02474 0.0291408 0)
(1.00883 0.0276483 0)
(1.01139 0.0252002 0)
(1.01531 0.0225221 0)
(1.01665 0.0198847 0)
(1.01728 0.0174004 0)
(1.01767 0.0151233 0)
(1.01783 0.0130721 0)
(1.01782 0.0112389 0)
(1.0177 0.00960222 0)
(1.01752 0.00813676 0)
(1.01732 0.00681944 0)
(1.01713 0.00563061 0)
(1.01696 0.00455115 0)
(1.01685 0.00356274 0)
(1.01678 0.0026516 0)
(1.01679 0.00181086 0)
(1.01687 0.0010395 0)
(1.01704 0.000339678 0)
(1.01729 -0.000283314 0)
(1.01763 -0.000825681 0)
(1.01805 -0.00126969 0)
(1.01854 -0.00159934 0)
(1.01908 -0.00179819 0)
(1.01964 -0.00185452 0)
(1.02019 -0.0017639 0)
(1.02069 -0.00153096 0)
(1.02112 -0.00117016 0)
(1.02144 -0.000705718 0)
(1.02162 -0.000169884 0)
(1.02167 0.000400255 0)
(1.02157 0.000965802 0)
(1.02135 0.00149414 0)
(1.021 0.00195871 0)
(1.02058 0.002343 0)
(1.0201 0.00263821 0)
(1.01958 0.00284437 0)
(1.01904 0.00296537 0)
(1.01852 0.00301001 0)
(1.01801 0.00298959 0)
(1.01754 0.00291634 0)
(1.01709 0.00280251 0)
(1.01669 0.00265935 0)
(1.01632 0.00249646 0)
(1.016 0.00232167 0)
(1.01572 0.00214132 0)
(1.01546 0.00196057 0)
(1.01524 0.00178355 0)
(1.01504 0.00161339 0)
(1.01488 0.00145215 0)
(1.01473 0.00130103 0)
(1.01461 0.0011606 0)
(1.01451 0.00103102 0)
(1.01441 0.000912313 0)
(1.01433 0.000804214 0)
(1.01427 0.000706298 0)
(1.01421 0.000618053 0)
(1.01417 0.00053889 0)
(1.01413 0.000468145 0)
(1.01409 0.000405126 0)
(1.01407 0.00034913 0)
(1.01404 0.000299507 0)
(1.01402 0.00025565 0)
(1.01401 0.000217025 0)
(1.014 0.000183143 0)
(1.01399 0.000153543 0)
(1.01398 0.000127803 0)
(1.01398 0.000105491 0)
(1.01397 8.62145e-05 0)
(1.01397 6.96343e-05 0)
(1.01397 5.5448e-05 0)
(1.01397 4.33831e-05 0)
(1.01397 3.3201e-05 0)
(1.01397 2.46756e-05 0)
(1.01397 1.75944e-05 0)
(1.01397 1.17833e-05 0)
(1.01397 7.1074e-06 0)
(1.01398 3.44793e-06 0)
(1.01398 6.55956e-07 0)
(1.01398 -1.42436e-06 0)
(1.01398 -2.93986e-06 0)
(1.01398 -4.02378e-06 0)
(1.01399 -4.77701e-06 0)
(1.01399 -5.29078e-06 0)
(1.01399 -5.59544e-06 0)
(1.014 -5.95797e-06 0)
(1.01398 -6.05285e-06 0)
(1.014 -6.11051e-06 0)
(0.92524 0.0132409 0)
(1.02243 0.024001 0)
(1.0232 0.0259354 0)
(1.00681 0.0249504 0)
(1.00911 0.0231119 0)
(1.01294 0.0210034 0)
(1.01433 0.0188438 0)
(1.01508 0.0167426 0)
(1.01564 0.0147582 0)
(1.01598 0.0129176 0)
(1.01614 0.0112253 0)
(1.01618 0.00967522 0)
(1.01614 0.00825737 0)
(1.01606 0.00695845 0)
(1.01598 0.00576226 2.57311e-34)
(1.01591 0.00465231 -2.57311e-34)
(1.01587 0.00361531 0)
(1.01587 0.00264306 0)
(1.01594 0.0017316 0)
(1.0161 0.000879888 0)
(1.01633 9.02378e-05 0)
(1.01667 -0.000629731 0)
(1.0171 -0.00126384 0)
(1.01763 -0.00179103 0)
(1.01825 -0.00218778 0)
(1.01894 -0.00242947 0)
(1.01966 -0.00249586 0)
(1.02037 -0.00237581 0)
(1.02103 -0.00207102 0)
(1.02159 -0.00159888 0)
(1.02201 -0.000992477 0)
(1.02225 -0.000296787 0)
(1.02231 0.00043734 0)
(1.02219 0.00115591 0)
(1.0219 0.00181801 0)
(1.02147 0.00238886 0)
(1.02095 0.00284934 0)
(1.02036 0.00319146 0)
(1.01975 0.00341696 0)
(1.01912 0.00353513 0)
(1.01852 0.00355998 0)
(1.01795 0.0035079 0)
(1.01742 0.00339572 0)
(1.01695 0.00323912 0)
(1.01651 0.00305186 0)
(1.01614 0.00284545 0)
(1.0158 0.00262915 0)
(1.01552 0.00241028 0)
(1.01527 0.00219446 0)
(1.01505 0.00198593 0)
(1.01487 0.00178774 0)
(1.01471 0.0016018 0)
(1.01458 0.00142908 0)
(1.01447 0.00126986 0)
(1.01437 0.00112397 0)
(1.01429 0.000991037 0)
(1.01423 0.000870566 0)
(1.01417 0.000762003 0)
(1.01412 0.000664666 0)
(1.01409 0.000577758 0)
(1.01406 0.000500403 0)
(1.01403 0.000431693 0)
(1.01401 0.000370765 0)
(1.01399 0.000316868 0)
(1.01398 0.000269382 0)
(1.01397 0.00022773 0)
(1.01397 0.000191342 0)
(1.01396 0.000159661 0)
(1.01396 0.000132147 0)
(1.01396 0.000108331 0)
(1.01395 8.77895e-05 0)
(1.01395 7.01572e-05 0)
(1.01396 5.51295e-05 0)
(1.01396 4.24238e-05 0)
(1.01396 3.17624e-05 0)
(1.01396 2.2876e-05 0)
(1.01397 1.5528e-05 0)
(1.01397 9.55552e-06 0)
(1.01397 4.82092e-06 0)
(1.01397 1.17913e-06 0)
(1.01398 -1.53994e-06 0)
(1.01398 -3.51665e-06 0)
(1.01398 -4.9063e-06 0)
(1.01398 -5.81609e-06 0)
(1.01399 -6.3389e-06 0)
(1.01399 -6.567e-06 0)
(1.01399 -6.55724e-06 0)
(1.014 -6.55495e-06 0)
(1.01398 -6.25174e-06 0)
(1.014 -5.86195e-06 0)
(0.925143 0.0116966 0)
(1.02185 0.0213569 0)
(1.02209 0.0232639 0)
(1.00529 0.0226129 0)
(1.00733 0.0212022 0)
(1.01103 0.0195243 0)
(1.01239 0.0177533 0)
(1.01319 0.0159804 0)
(1.01385 0.0142578 0)
(1.0143 0.0126149 0)
(1.01458 0.0110667 0)
(1.01473 0.00961773 0)
(1.0148 0.00826454 0)
(1.01482 0.00699771 0)
(1.01482 0.00580526 2.57998e-34)
(1.01482 0.00467614 -2.57998e-34)
(1.01484 0.00360183 0)
(1.0149 0.00257609 0)
(1.01502 0.00159473 0)
(1.01523 0.000656891 0)
(1.01553 -0.000232543 0)
(1.01594 -0.00106111 0)
(1.01647 -0.00180727 0)
(1.01713 -0.0024423 0)
(1.0179 -0.00293104 0)
(1.01877 -0.00323632 0)
(1.01969 -0.00332403 0)
(1.02061 -0.00317141 0)
(1.02147 -0.00277531 0)
(1.0222 -0.0021576 0)
(1.02274 -0.00136455 0)
(1.02305 -0.000459673 0)
(1.02312 0.000486856 0)
(1.02296 0.00140092 0)
(1.02258 0.00222768 0)
(1.02203 0.00292716 0)
(1.02138 0.00347341 0)
(1.02066 0.00386072 0)
(1.01992 0.0040952 0)
(1.01919 0.00419639 0)
(1.01849 0.00418562 0)
(1.01785 0.0040859 0)
(1.01727 0.00391963 0)
(1.01675 0.00370665 0)
(1.01629 0.00346368 0)
(1.0159 0.00320432 0)
(1.01557 0.00293919 0)
(1.01528 0.00267626 0)
(1.01504 0.00242134 0)
(1.01483 0.00217849 0)
(1.01466 0.00195042 0)
(1.01452 0.00173868 0)
(1.0144 0.00154382 0)
(1.01431 0.00136568 0)
(1.01423 0.0012037 0)
(1.01416 0.00105707 0)
(1.01411 0.000925009 0)
(1.01406 0.000806679 0)
(1.01403 0.000701122 0)
(1.014 0.000607276 0)
(1.01398 0.000524028 0)
(1.01396 0.000450308 0)
(1.01395 0.000385153 0)
(1.01394 0.000327734 0)
(1.01394 0.000277331 0)
(1.01393 0.000233282 0)
(1.01393 0.00019492 0)
(1.01393 0.000161601 0)
(1.01393 0.000132735 0)
(1.01393 0.000107808 0)
(1.01393 8.63795e-05 0)
(1.01394 6.8072e-05 0)
(1.01394 5.25456e-05 0)
(1.01395 3.94715e-05 0)
(1.01395 2.85378e-05 0)
(1.01395 1.94773e-05 0)
(1.01396 1.20706e-05 0)
(1.01396 6.14156e-06 0)
(1.01397 1.5178e-06 0)
(1.01397 -1.9872e-06 0)
(1.01397 -4.53081e-06 0)
(1.01398 -6.28869e-06 0)
(1.01398 -7.41218e-06 0)
(1.01398 -8.01684e-06 0)
(1.01399 -8.19578e-06 0)
(1.01399 -8.0499e-06 0)
(1.01399 -7.62812e-06 0)
(1.014 -7.15166e-06 0)
(1.01398 -6.34637e-06 0)
(1.014 -5.43567e-06 0)
(0.925072 0.0104379 0)
(1.02143 0.0191779 0)
(1.02125 0.0210106 0)
(1.00411 0.0205818 0)
(1.00592 0.0194826 0)
(1.00948 0.0181342 0)
(1.01078 0.0166741 0)
(1.01158 0.0151732 0)
(1.01227 0.0136776 0)
(1.01279 0.0122181 0)
(1.01314 0.010813 0)
(1.01338 0.00946962 0)
(1.01352 0.00818732 0)
(1.01361 0.00696059 0)
(1.01366 0.00578234 -6.47245e-35)
(1.0137 0.00464525 6.47245e-35)
(1.01377 0.00354208 0)
(1.01387 0.00246619 0)
(1.01402 0.00141299 0)
(1.01427 0.00038235 0)
(1.01462 -0.000619069 0)
(1.01509 -0.00157647 0)
(1.01572 -0.00246299 0)
(1.01651 -0.00324061 0)
(1.01745 -0.00385958 0)
(1.01854 -0.00426228 0)
(1.01973 -0.00439227 0)
(1.02092 -0.00420764 0)
(1.02204 -0.0036963 0)
(1.023 -0.0028862 0)
(1.0237 -0.00184404 0)
(1.0241 -0.000661194 0)
(1.02417 0.000563038 0)
(1.02393 0.00173337 0)
(1.02342 0.00276864 0)
(1.02272 0.0036179 0)
(1.02188 0.00425411 0)
(1.02099 0.00467642 0)
(1.02008 0.00490468 0)
(1.01921 0.00496818 0)
(1.01841 0.00489929 0)
(1.01768 0.00473029 0)
(1.01705 0.00449042 0)
(1.01649 0.00420437 0)
(1.01601 0.00389208 0)
(1.01561 0.00356914 0)
(1.01528 0.00324718 0)
(1.015 0.00293444 0)
(1.01477 0.00263647 0)
(1.01458 0.00235676 0)
(1.01443 0.00209736 0)
(1.0143 0.00185913 0)
(1.01421 0.00164201 0)
(1.01413 0.0014453 0)
(1.01406 0.00126789 0)
(1.01401 0.00110849 0)
(1.01398 0.000965866 0)
(1.01395 0.000838804 0)
(1.01393 0.000726029 0)
(1.01391 0.000626214 0)
(1.0139 0.000538029 0)
(1.01389 0.00046023 0)
(1.01389 0.000391722 0)
(1.01389 0.000331582 0)
(1.01389 0.000279007 0)
(1.01389 0.000233221 0)
(1.01389 0.00019347 0)
(1.0139 0.000159046 0)
(1.0139 0.000129316 0)
(1.01391 0.000103739 0)
(1.01391 8.18584e-05 0)
(1.01392 6.32548e-05 0)
(1.01393 4.75383e-05 0)
(1.01393 3.43567e-05 0)
(1.01394 2.34015e-05 0)
(1.01395 1.4416e-05 0)
(1.01395 7.1817e-06 0)
(1.01396 1.48955e-06 0)
(1.01396 -2.86512e-06 0)
(1.01397 -6.08007e-06 0)
(1.01397 -8.32244e-06 0)
(1.01398 -9.74305e-06 0)
(1.01398 -1.04809e-05 0)
(1.01398 -1.06653e-05 0)
(1.01399 -1.04067e-05 0)
(1.01399 -9.78582e-06 0)
(1.01399 -8.84252e-06 0)
(1.014 -7.78568e-06 0)
(1.01398 -6.39632e-06 0)
(1.014 -4.89906e-06 0)
(0.925019 0.00939275 0)
(1.0211 0.0173471 0)
(1.02059 0.019089 0)
(1.00319 0.0188138 0)
(1.00479 0.0179464 0)
(1.00821 0.0168502 0)
(1.00943 0.0156362 0)
(1.0102 0.0143609 0)
(1.01089 0.0130636 0)
(1.01144 0.0117717 0)
(1.01183 0.0105019 0)
(1.01211 0.0092619 0)
(1.0123 0.00805329 0)
(1.01242 0.00687395 0)
(1.01251 0.00571923 0)
(1.01257 0.00458258 0)
(1.01266 0.00345623 0)
(1.01277 0.00233265 0)
(1.01294 0.00120648 0)
(1.0132 7.66086e-05 0)
(1.01357 -0.00105192 0)
(1.0141 -0.00216479 0)
(1.01481 -0.00323024 0)
(1.01573 -0.00420117 0)
(1.01688 -0.00500818 0)
(1.01823 -0.0055633 0)
(1.01975 -0.00577414 0)
(1.02131 -0.00556604 0)
(1.02279 -0.00490932 0)
(1.02405 -0.00383978 0)
(1.02497 -0.002458 0)
(1.02546 -0.000899039 0)
(1.02552 0.000697613 0)
(1.02516 0.0022013 0)
(1.02446 0.00349707 0)
(1.02352 0.00451379 0)
(1.02244 0.00523638 0)
(1.02131 0.00567772 0)
(1.02021 0.00587435 0)
(1.01918 0.00586999 0)
(1.01825 0.00571229 0)
(1.01744 0.00544571 0)
(1.01674 0.00510786 0)
(1.01615 0.00472882 0)
(1.01566 0.00433168 0)
(1.01526 0.00393354 0)
(1.01493 0.00354639 0)
(1.01467 0.00317816 0)
(1.01446 0.00283359 0)
(1.01429 0.0025151 0)
(1.01416 0.0022236 0)
(1.01406 0.00195891 0)
(1.01399 0.00172009 0)
(1.01393 0.00150569 0)
(1.01389 0.00131397 0)
(1.01386 0.0011431 0)
(1.01384 0.000991266 0)
(1.01382 0.000856792 0)
(1.01382 0.000738053 0)
(1.01381 0.000633458 0)
(1.01381 0.000541474 0)
(1.01382 0.000460685 0)
(1.01382 0.000389859 0)
(1.01383 0.000327948 0)
(1.01384 0.000274017 0)
(1.01385 0.000227192 0)
(1.01386 0.000186672 0)
(1.01387 0.000151728 0)
(1.01388 0.000121695 0)
(1.01389 9.59916e-05 0)
(1.01389 7.40998e-05 0)
(1.0139 5.55564e-05 0)
(1.01391 3.99604e-05 0)
(1.01392 2.69721e-05 0)
(1.01393 1.62928e-05 0)
(1.01394 7.65321e-06 0)
(1.01395 8.02447e-07 0)
(1.01395 -4.4839e-06 0)
(1.01396 -8.41002e-06 0)
(1.01396 -1.11702e-05 0)
(1.01397 -1.29565e-05 0)
(1.01398 -1.39019e-05 0)
(1.01398 -1.41462e-05 0)
(1.01398 -1.38142e-05 0)
(1.01399 -1.30072e-05 0)
(1.01399 -1.17897e-05 0)
(1.01399 -1.02238e-05 0)
(1.014 -8.4971e-06 0)
(1.01398 -6.46126e-06 0)
(1.014 -4.31588e-06 0)
(0.924976 0.00851313 0)
(1.02084 0.0157887 0)
(1.02008 0.0174369 0)
(1.00245 0.017269 0)
(1.00388 0.0165748 0)
(1.00716 0.015674 0)
(1.00829 0.0146585 0)
(1.00901 0.013573 0)
(1.00968 0.0124485 0)
(1.01023 0.0113068 0)
(1.01063 0.0101622 0)
(1.01093 0.00902233 0)
(1.01113 0.00789002 0)
(1.01127 0.00676414 0)
(1.01137 0.00564014 -1.04561e-33)
(1.01144 0.00451077 1.04561e-33)
(1.01152 0.00336723 0)
(1.01162 0.00220046 0)
(1.01177 0.00100257 0)
(1.01201 -0.000231295 0)
(1.01238 -0.00150376 0)
(1.01291 -0.00280199 0)
(1.01368 -0.00409693 0)
(1.01473 -0.00533212 0)
(1.01609 -0.00641436 0)
(1.01778 -0.00721188 0)
(1.01972 -0.00757367 0)
(1.02178 -0.00736669 0)
(1.02377 -0.00652528 0)
(1.02545 -0.00509518 0)
(1.02664 -0.00323952 0)
(1.02725 -0.00116594 0)
(1.02727 0.000941548 0)
(1.02673 0.00287532 0)
(1.02574 0.00448055 0)
(1.02446 0.00569331 0)
(1.02305 0.00649421 0)
(1.02162 0.00692125 0)
(1.02028 0.00704053 0)
(1.01905 0.00692212 0)
(1.01798 0.00663336 0)
(1.01708 0.00623288 0)
(1.01633 0.00576748 0)
(1.01571 0.00527246 0)
(1.01522 0.0047734 0)
(1.01483 0.00428797 0)
(1.01452 0.00382759 0)
(1.01429 0.00339889 0)
(1.01411 0.00300503 0)
(1.01397 0.00264676 0)
(1.01387 0.00232333 0)
(1.0138 0.0020331 0)
(1.01375 0.00177396 0)
(1.01372 0.0015435 0)
(1.0137 0.00133923 0)
(1.01369 0.00115865 0)
(1.01369 0.000999369 0)
(1.01369 0.000859167 0)
(1.0137 0.000736024 0)