/*--------------------------------*- C++ -*----------------------------------*\
| =========                 |                                                 |
| \\      /  F ield         | OpenFOAM: The Open Source CFD Toolbox           |
|  \\    /   O peration     | Version:  v1806                                 |
|   \\  /    A nd           | Web:      www.OpenFOAM.com                      |
|    \\/     M anipulation  |                                                 |
\*---------------------------------------------------------------------------*/
FoamFile
{
    version     2.0;
    format      ascii;
    class       vectorField;
    location    "0.01";
    object      currentcloudofpoints;
}
// * * * * * * * * * * * * * * * * * * * * * * * * * * * * * * * * * * * * * //


648
(
(0.204326 0.516963 0.05)
(0.67458 0.503559 0.05)
(0.291304 0.558483 0.05)
(0.591514 0.457304 0.05)
(0.21355 0.496719 0.05)
(0.223686 0.478241 0.05)
(0.234461 0.461261 0.05)
(0.245735 0.445478 0.05)
(0.257544 0.430447 0.05)
(0.269637 0.416115 0.05)
(0.281803 0.40199 0.05)
(0.294078 0.388038 0.05)
(0.306422 0.374051 0.05)
(0.318912 0.360062 0.05)
(0.331617 0.346001 0.05)
(0.344656 0.331929 0.05)
(0.358219 0.317992 0.05)
(0.372591 0.304467 0.05)
(0.387991 0.291536 0.05)
(0.404601 0.279439 0.05)
(0.422386 0.268425 0.05)
(0.441451 0.258805 0.05)
(0.461792 0.250843 0.05)
(0.483487 0.244726 0.05)
(0.506645 0.24077 0.05)
(0.531177 0.239546 0.05)
(0.556679 0.241779 0.05)
(0.582523 0.248027 0.05)
(0.607949 0.258602 0.05)
(0.631941 0.273532 0.05)
(0.653524 0.292569 0.05)
(0.671548 0.314927 0.05)
(0.685346 0.339748 0.05)
(0.694471 0.365655 0.05)
(0.699032 0.391708 0.05)
(0.699417 0.41709 0.05)
(0.696423 0.441242 0.05)
(0.690875 0.463796 0.05)
(0.683438 0.484542 0.05)
(0.664802 0.521178 0.05)
(0.654567 0.53777 0.05)
(0.643975 0.553754 0.05)
(0.632812 0.56928 0.05)
(0.621247 0.584505 0.05)
(0.609335 0.599498 0.05)
(0.597304 0.614294 0.05)
(0.585483 0.628954 0.05)
(0.574122 0.643491 0.05)
(0.563476 0.658132 0.05)
(0.553634 0.672974 0.05)
(0.544422 0.688104 0.05)
(0.535323 0.703517 0.05)
(0.525614 0.71913 0.05)
(0.5143 0.734652 0.05)
(0.500614 0.749803 0.05)
(0.48395 0.763877 0.05)
(0.464292 0.776072 0.05)
(0.441348 0.785659 0.05)
(0.41581 0.791749 0.05)
(0.388558 0.793652 0.05)
(0.360741 0.791145 0.05)
(0.333654 0.784652 0.05)
(0.30825 0.774906 0.05)
(0.285033 0.762502 0.05)
(0.264135 0.747844 0.05)
(0.245471 0.731108 0.05)
(0.229034 0.712175 0.05)
(0.215031 0.691057 0.05)
(0.203734 0.667724 0.05)
(0.195471 0.642588 0.05)
(0.190587 0.616247 0.05)
(0.189302 0.589626 0.05)
(0.19149 0.563717 0.05)
(0.19671 0.539329 0.05)
(0.297328 0.545544 0.05)
(0.304495 0.532636 0.05)
(0.312525 0.519622 0.05)
(0.321359 0.506383 0.05)
(0.330823 0.492823 0.05)
(0.340928 0.478848 0.05)
(0.351599 0.464513 0.05)
(0.362833 0.450004 0.05)
(0.374617 0.435603 0.05)
(0.386822 0.421685 0.05)
(0.39935 0.408512 0.05)
(0.412058 0.396346 0.05)
(0.424815 0.385309 0.05)
(0.437464 0.375347 0.05)
(0.449901 0.366439 0.05)
(0.462291 0.358471 0.05)
(0.474593 0.351383 0.05)
(0.486769 0.345132 0.05)
(0.498794 0.339737 0.05)
(0.510837 0.33537 0.05)
(0.522932 0.332112 0.05)
(0.535159 0.330329 0.05)
(0.547375 0.330053 0.05)
(0.559457 0.331775 0.05)
(0.571086 0.335341 0.05)
(0.581885 0.341018 0.05)
(0.59138 0.348726 0.05)
(0.599274 0.358021 0.05)
(0.605215 0.368916 0.05)
(0.608913 0.380906 0.05)
(0.610483 0.393422 0.05)
(0.609949 0.406186 0.05)
(0.607543 0.418988 0.05)
(0.603498 0.431734 0.05)
(0.598085 0.44446 0.05)
(0.583955 0.470447 0.05)
(0.575553 0.483993 0.05)
(0.566534 0.49795 0.05)
(0.556998 0.512323 0.05)
(0.54703 0.527052 0.05)
(0.536516 0.542006 0.05)
(0.525365 0.557063 0.05)
(0.513623 0.572058 0.05)
(0.501417 0.587008 0.05)
(0.489209 0.601673 0.05)
(0.477464 0.616002 0.05)
(0.466165 0.630006 0.05)
(0.45578 0.643357 0.05)
(0.446018 0.655942 0.05)
(0.436557 0.667686 0.05)
(0.427299 0.678251 0.05)
(0.417935 0.68744 0.05)
(0.408136 0.695086 0.05)
(0.397696 0.700989 0.05)
(0.386545 0.70497 0.05)
(0.374709 0.706891 0.05)
(0.362369 0.706638 0.05)
(0.349841 0.704174 0.05)
(0.337466 0.699579 0.05)
(0.325698 0.692959 0.05)
(0.314894 0.684555 0.05)
(0.305312 0.674573 0.05)
(0.297234 0.663335 0.05)
(0.290703 0.651127 0.05)
(0.285835 0.638264 0.05)
(0.28265 0.624987 0.05)
(0.28116 0.611539 0.05)
(0.281343 0.598082 0.05)
(0.283169 0.584726 0.05)
(0.286511 0.57152 0.05)
(0.647245 0.446805 0.05)
(0.242121 0.570934 0.05)
(0.270748 0.5096 0.05)
(0.611812 0.506258 0.05)
(0.311597 0.453537 0.05)
(0.409047 0.343579 0.05)
(0.51848 0.627336 0.05)
(0.358995 0.396241 0.05)
(0.477305 0.686774 0.05)
(0.567367 0.564911 0.05)
(0.465676 0.30521 0.05)
(0.244267 0.644698 0.05)
(0.435316 0.733728 0.05)
(0.653744 0.371387 0.05)
(0.36478 0.74837 0.05)
(0.288544 0.712191 0.05)
(0.532867 0.28589 0.05)
(0.607364 0.305608 0.05)
(0.295175 0.511271 0.05)
(0.280785 0.534846 0.05)
(0.62095 0.449326 0.05)
(0.630783 0.424336 0.05)
(0.266385 0.566846 0.05)
(0.260759 0.592714 0.05)
(0.336456 0.454983 0.05)
(0.317493 0.48 0.05)
(0.585584 0.504974 0.05)
(0.60222 0.480554 0.05)
(0.634469 0.388658 0.05)
(0.628328 0.361079 0.05)
(0.541099 0.565154 0.05)
(0.561321 0.538374 0.05)
(0.385367 0.397058 0.05)
(0.363545 0.42166 0.05)
(0.491691 0.627493 0.05)
(0.512891 0.600899 0.05)
(0.490178 0.319185 0.05)
(0.466858 0.330972 0.05)
(0.436826 0.350236 0.05)
(0.414264 0.36832 0.05)
(0.409132 0.721444 0.05)
(0.429159 0.708214 0.05)
(0.451259 0.683475 0.05)
(0.467335 0.660698 0.05)
(0.262176 0.628608 0.05)
(0.270289 0.655865 0.05)
(0.348743 0.725303 0.05)
(0.376714 0.728828 0.05)
(0.290971 0.688295 0.05)
(0.313514 0.708429 0.05)
(0.548744 0.307205 0.05)
(0.522471 0.309097 0.05)
(0.606927 0.330911 0.05)
(0.583349 0.315615 0.05)
(0.653371 0.410456 0.05)
(0.629 0.475886 0.05)
(0.256443 0.540461 0.05)
(0.292054 0.483549 0.05)
(0.588506 0.533192 0.05)
(0.240966 0.607272 0.05)
(0.336689 0.426681 0.05)
(0.43854 0.324729 0.05)
(0.540727 0.594517 0.05)
(0.456255 0.710889 0.05)
(0.385809 0.370093 0.05)
(0.49397 0.656145 0.05)
(0.634963 0.335284 0.05)
(0.498654 0.294788 0.05)
(0.402472 0.744451 0.05)
(0.325035 0.733863 0.05)
(0.263345 0.679805 0.05)
(0.570194 0.291891 0.05)
(0.664811 0.342938 0.05)
(0.67744 0.395221 0.05)
(0.674031 0.434787 0.05)
(0.658809 0.477349 0.05)
(0.215073 0.585949 0.05)
(0.225684 0.540962 0.05)
(0.599555 0.564902 0.05)
(0.572715 0.598255 0.05)
(0.505851 0.266331 0.05)
(0.55516 0.264929 0.05)
(0.280621 0.451615 0.05)
(0.305905 0.420505 0.05)
(0.469775 0.739513 0.05)
(0.43225 0.762192 0.05)
(0.298157 0.743823 0.05)
(0.256367 0.708451 0.05)
(0.232784 0.674427 0.05)
(0.216731 0.625309 0.05)
(0.432651 0.295104 0.05)
(0.471183 0.275845 0.05)
(0.393106 0.770294 0.05)
(0.338088 0.762769 0.05)
(0.551886 0.624733 0.05)
(0.527308 0.657933 0.05)
(0.375112 0.341438 0.05)
(0.405681 0.313896 0.05)
(0.510461 0.684081 0.05)
(0.490261 0.716372 0.05)
(0.326537 0.396354 0.05)
(0.353431 0.365355 0.05)
(0.594918 0.2761 0.05)
(0.639905 0.307309 0.05)
(0.240345 0.510684 0.05)
(0.261894 0.476641 0.05)
(0.642121 0.505635 0.05)
(0.619239 0.539178 0.05)
(0.292364 0.534496 0.05)
(0.285837 0.546926 0.05)
(0.299745 0.522192 0.05)
(0.288003 0.52327 0.05)
(0.307963 0.509795 0.05)
(0.282858 0.511157 0.05)
(0.275843 0.522408 0.05)
(0.606629 0.45223 0.05)
(0.612735 0.439852 0.05)
(0.626016 0.436899 0.05)
(0.61761 0.427309 0.05)
(0.634479 0.447799 0.05)
(0.639398 0.435328 0.05)
(0.621032 0.41439 0.05)
(0.278621 0.563371 0.05)
(0.274503 0.5762 0.05)
(0.263353 0.579759 0.05)
(0.271832 0.589268 0.05)
(0.254328 0.569174 0.05)
(0.251313 0.582011 0.05)
(0.27066 0.602652 0.05)
(0.328977 0.480152 0.05)
(0.319535 0.493218 0.05)
(0.338891 0.46687 0.05)
(0.327083 0.467858 0.05)
(0.349383 0.453277 0.05)
(0.323908 0.455114 0.05)
(0.314913 0.466795 0.05)
(0.589247 0.481133 0.05)
(0.597163 0.468439 0.05)
(0.580697 0.494069 0.05)
(0.593749 0.492378 0.05)
(0.571556 0.507392 0.05)
(0.598984 0.504767 0.05)
(0.607011 0.493253 0.05)
(0.619376 0.370787 0.05)
(0.614127 0.358495 0.05)
(0.622271 0.383719 0.05)
(0.632046 0.374816 0.05)
(0.622909 0.397027 0.05)
(0.644707 0.380182 0.05)
(0.64148 0.365728 0.05)
(0.549074 0.539311 0.05)
(0.559041 0.525177 0.05)
(0.538618 0.553522 0.05)
(0.551107 0.551448 0.05)
(0.527504 0.567822 0.05)
(0.55437 0.564198 0.05)
(0.564031 0.551683 0.05)
(0.375086 0.421931 0.05)
(0.363739 0.43547 0.05)
(0.386777 0.408944 0.05)
(0.37467 0.409405 0.05)
(0.398696 0.396696 0.05)
(0.372121 0.397035 0.05)
(0.362005 0.408614 0.05)
(0.500989 0.600938 0.05)
(0.512594 0.58672 0.05)
(0.48968 0.614873 0.05)
(0.501788 0.613997 0.05)
(0.478738 0.628588 0.05)
(0.504958 0.626994 0.05)
(0.514771 0.614478 0.05)
(0.47731 0.337753 0.05)
(0.465616 0.344439 0.05)
(0.489083 0.331939 0.05)
(0.478648 0.325143 0.05)
(0.501042 0.326944 0.05)
(0.478189 0.31203 0.05)
(0.466737 0.317922 0.05)
(0.426128 0.371587 0.05)
(0.414227 0.381822 0.05)
(0.43801 0.362361 0.05)
(0.425808 0.359224 0.05)
(0.449978 0.35406 0.05)
(0.423085 0.346806 0.05)
(0.412499 0.35567 0.05)
(0.418199 0.702114 0.05)
(0.427476 0.69385 0.05)
(0.408215 0.708807 0.05)
(0.419321 0.715123 0.05)
(0.397257 0.713771 0.05)
(0.421921 0.727991 0.05)
(0.431993 0.721355 0.05)
(0.456388 0.658528 0.05)
(0.465665 0.645836 0.05)
(0.447556 0.670373 0.05)
(0.458876 0.672094 0.05)
(0.438999 0.681223 0.05)
(0.464017 0.685307 0.05)
(0.471472 0.67423 0.05)
(0.277883 0.647341 0.05)
(0.28368 0.660319 0.05)
(0.273867 0.634009 0.05)
(0.26585 0.642291 0.05)
(0.271532 0.620433 0.05)
(0.253042 0.636478 0.05)
(0.257133 0.650446 0.05)
(0.368899 0.718164 0.05)
(0.38168 0.717516 0.05)
(0.355698 0.716577 0.05)
(0.362851 0.727678 0.05)
(0.342383 0.712808 0.05)
(0.356332 0.737127 0.05)
(0.371174 0.739055 0.05)
(0.313717 0.696762 0.05)
(0.325733 0.704812 0.05)
(0.302984 0.687093 0.05)
(0.301844 0.698725 0.05)
(0.293673 0.676062 0.05)
(0.289241 0.700269 0.05)
(0.301034 0.710712 0.05)
(0.529481 0.319296 0.05)
(0.516988 0.321875 0.05)
(0.542156 0.318229 0.05)
(0.535491 0.307891 0.05)
(0.554993 0.318994 0.05)
(0.541202 0.296243 0.05)
(0.527593 0.297153 0.05)
(0.583474 0.327959 0.05)
(0.571366 0.322817 0.05)
(0.594529 0.335122 0.05)
(0.595417 0.322648 0.05)
(0.604175 0.344195 0.05)
(0.607872 0.318043 0.05)
(0.595332 0.309858 0.05)
(0.633301 0.406713 0.05)
(0.642542 0.417512 0.05)
(0.644492 0.399097 0.05)
(0.650756 0.428978 0.05)
(0.654617 0.391255 0.05)
(0.611493 0.464579 0.05)
(0.615854 0.477511 0.05)
(0.625152 0.46251 0.05)
(0.62013 0.490745 0.05)
(0.638152 0.461403 0.05)
(0.273416 0.550976 0.05)
(0.268565 0.53822 0.05)
(0.261306 0.55376 0.05)
(0.263689 0.525162 0.05)
(0.249173 0.555613 0.05)
(0.306476 0.496261 0.05)
(0.304638 0.482613 0.05)
(0.293874 0.497409 0.05)
(0.302149 0.468957 0.05)
(0.281559 0.497097 0.05)
(0.573157 0.521 0.05)
(0.575114 0.534806 0.05)
(0.586784 0.519056 0.05)
(0.577614 0.548573 0.05)
(0.599937 0.51902 0.05)
(0.260936 0.610603 0.05)
(0.250809 0.599968 0.05)
(0.251325 0.618119 0.05)
(0.241091 0.58892 0.05)
(0.241954 0.625869 0.05)
(0.350225 0.438828 0.05)
(0.349934 0.424982 0.05)
(0.337153 0.440603 0.05)
(0.348302 0.411727 0.05)
(0.324354 0.440884 0.05)
(0.45223 0.340683 0.05)
(0.45291 0.327716 0.05)
(0.438331 0.33732 0.05)
(0.452313 0.315061 0.05)
(0.424077 0.334216 0.05)
(0.526594 0.582643 0.05)
(0.526875 0.596991 0.05)
(0.540335 0.580071 0.05)
(0.528746 0.610696 0.05)
(0.553809 0.5791 0.05)
(0.439964 0.696139 0.05)
(0.442558 0.709822 0.05)
(0.452964 0.697735 0.05)
(0.44602 0.72261 0.05)
(0.466528 0.698824 0.05)
(0.400338 0.382521 0.05)
(0.4 0.36931 0.05)
(0.386493 0.383158 0.05)
(0.398018 0.356769 0.05)
(0.372717 0.383352 0.05)
(0.478562 0.643871 0.05)
(0.480469 0.658199 0.05)
(0.491807 0.642275 0.05)
(0.484759 0.671401 0.05)
(0.505402 0.64128 0.05)
(0.618618 0.34531 0.05)
(0.632521 0.348221 0.05)
(0.621168 0.332246 0.05)
(0.64552 0.352773 0.05)
(0.622077 0.319424 0.05)
(0.506283 0.314037 0.05)
(0.510854 0.301708 0.05)
(0.494484 0.306773 0.05)
(0.515474 0.28997 0.05)
(0.482134 0.299955 0.05)
(0.393432 0.725971 0.05)
(0.389243 0.737123 0.05)
(0.406136 0.733315 0.05)
(0.384209 0.747447 0.05)
(0.419466 0.739721 0.05)
(0.330787 0.717766 0.05)
(0.318664 0.721335 0.05)
(0.337204 0.730208 0.05)
(0.30623 0.723789 0.05)
(0.344648 0.742143 0.05)
(0.279901 0.672434 0.05)
(0.266357 0.667743 0.05)
(0.277021 0.684403 0.05)
(0.253119 0.662487 0.05)
(0.275111 0.69642 0.05)
(0.566043 0.310521 0.05)
(0.577375 0.303399 0.05)
(0.559232 0.299038 0.05)
(0.588963 0.297617 0.05)
(0.55143 0.288147 0.05)
(0.668325 0.328774 0.05)
(0.679988 0.354292 0.05)
(0.673089 0.368883 0.05)
(0.686546 0.380669 0.05)
(0.660108 0.357264 0.05)
(0.666072 0.383136 0.05)
(0.688316 0.40686 0.05)
(0.674566 0.471818 0.05)
(0.665704 0.491368 0.05)
(0.681788 0.450355 0.05)
(0.666632 0.456785 0.05)
(0.686784 0.426737 0.05)
(0.660871 0.4413 0.05)
(0.652907 0.462341 0.05)
(0.208592 0.549452 0.05)
(0.215922 0.5277 0.05)
(0.203694 0.573105 0.05)
(0.219996 0.562799 0.05)
(0.201966 0.598415 0.05)
(0.228706 0.577424 0.05)
(0.234185 0.555632 0.05)
(0.615756 0.567039 0.05)
(0.603412 0.582692 0.05)
(0.585527 0.580878 0.05)
(0.590853 0.598279 0.05)
(0.58354 0.563953 0.05)
(0.569158 0.581921 0.05)
(0.578217 0.613846 0.05)
(0.493394 0.256184 0.05)
(0.517218 0.252712 0.05)
(0.529976 0.264689 0.05)
(0.542274 0.252392 0.05)
(0.51922 0.276029 0.05)
(0.543372 0.274907 0.05)
(0.568195 0.255962 0.05)
(0.264076 0.448525 0.05)
(0.27612 0.433678 0.05)
(0.293957 0.436899 0.05)
(0.28836 0.419005 0.05)
(0.296233 0.453663 0.05)
(0.309583 0.436837 0.05)
(0.300642 0.404412 0.05)
(0.48624 0.743298 0.05)
(0.469617 0.756771 0.05)
(0.452281 0.751284 0.05)
(0.449517 0.768248 0.05)
(0.452703 0.736556 0.05)
(0.434872 0.747905 0.05)
(0.426111 0.776852 0.05)
(0.303654 0.75949 0.05)
(0.280442 0.74496 0.05)
(0.276212 0.726827 0.05)
(0.259845 0.727998 0.05)
(0.29283 0.728039 0.05)
(0.272063 0.710049 0.05)
(0.241891 0.708742 0.05)
(0.229879 0.692298 0.05)
(0.217566 0.669147 0.05)
(0.223587 0.649941 0.05)
(0.208713 0.644459 0.05)
(0.237737 0.658686 0.05)
(0.230279 0.634354 0.05)
(0.203478 0.618756 0.05)
(0.417522 0.28849 0.05)
(0.435688 0.277692 0.05)
(0.451682 0.285544 0.05)
(0.455022 0.26837 0.05)
(0.449015 0.300377 0.05)
(0.468047 0.290623 0.05)
(0.475857 0.260698 0.05)
(0.405779 0.780745 0.05)
(0.378239 0.781378 0.05)
(0.365717 0.768272 0.05)
(0.350385 0.777227 0.05)
(0.379068 0.759696 0.05)
(0.352091 0.75613 0.05)
(0.323318 0.768782 0.05)
(0.568682 0.626116 0.05)
(0.556591 0.641406 0.05)
(0.538186 0.640669 0.05)
(0.545411 0.656815 0.05)
(0.535118 0.625105 0.05)
(0.521571 0.643051 0.05)
(0.535268 0.672521 0.05)
(0.359314 0.337988 0.05)
(0.373436 0.324066 0.05)
(0.390794 0.327971 0.05)
(0.388266 0.310559 0.05)
(0.391831 0.343009 0.05)
(0.40777 0.328882 0.05)
(0.404094 0.297737 0.05)
(0.527584 0.684849 0.05)
(0.518096 0.700631 0.05)
(0.499647 0.699924 0.05)
(0.508346 0.716315 0.05)
(0.49364 0.684957 0.05)
(0.48315 0.701817 0.05)
(0.496879 0.731897 0.05)
(0.310475 0.393076 0.05)
(0.323194 0.378631 0.05)
(0.340638 0.381375 0.05)
(0.335949 0.364054 0.05)
(0.342604 0.39731 0.05)
(0.357018 0.380634 0.05)
(0.349004 0.349508 0.05)
(0.58829 0.262044 0.05)
(0.613179 0.273879 0.05)
(0.618336 0.289946 0.05)
(0.636016 0.290158 0.05)
(0.60154 0.290513 0.05)
(0.623805 0.305462 0.05)
(0.65578 0.31058 0.05)
(0.223183 0.512034 0.05)
(0.233287 0.493704 0.05)
(0.251681 0.493867 0.05)
(0.24388 0.476708 0.05)
(0.255976 0.51049 0.05)
(0.266979 0.493078 0.05)
(0.254968 0.460511 0.05)
(0.657753 0.505461 0.05)
(0.647163 0.522426 0.05)
(0.630121 0.521868 0.05)
(0.636264 0.538729 0.05)
(0.626999 0.505532 0.05)
(0.614922 0.522885 0.05)
(0.625103 0.554815 0.05)
(0.650243 0.491534 0.05)
(0.643997 0.476706 0.05)
(0.635253 0.490935 0.05)
(0.609085 0.551588 0.05)
(0.603918 0.535474 0.05)
(0.593415 0.549225 0.05)
(0.233216 0.525634 0.05)
(0.241557 0.540438 0.05)
(0.248904 0.525474 0.05)
(0.271588 0.464481 0.05)
(0.277302 0.480732 0.05)
(0.287101 0.46765 0.05)
(0.6764 0.415444 0.05)
(0.665957 0.403336 0.05)
(0.663982 0.422747 0.05)
(0.316659 0.408844 0.05)
(0.321354 0.424733 0.05)
(0.332418 0.411359 0.05)
(0.215254 0.605343 0.05)
(0.228488 0.614934 0.05)
(0.228096 0.595985 0.05)
(0.561692 0.611138 0.05)
(0.556724 0.595514 0.05)
(0.545204 0.609989 0.05)
(0.518037 0.670645 0.05)
(0.510348 0.65643 0.05)
(0.501124 0.670479 0.05)
(0.419287 0.304652 0.05)
(0.421925 0.319586 0.05)
(0.435627 0.31007 0.05)
(0.480322 0.727856 0.05)
(0.473008 0.713575 0.05)
(0.463147 0.7252 0.05)
(0.488212 0.270929 0.05)
(0.484675 0.28544 0.05)
(0.501663 0.280479 0.05)
(0.364647 0.353638 0.05)
(0.369406 0.368409 0.05)
(0.381076 0.355839 0.05)
(0.653401 0.324307 0.05)
(0.638056 0.32111 0.05)
(0.650282 0.338425 0.05)
(0.413319 0.767082 0.05)
(0.417635 0.753461 0.05)
(0.399008 0.757574 0.05)
(0.243862 0.691727 0.05)
(0.259058 0.69357 0.05)
(0.24765 0.676398 0.05)
(0.317666 0.754031 0.05)
(0.331479 0.74849 0.05)
(0.311617 0.739013 0.05)
(0.575045 0.269531 0.05)
(0.56275 0.278223 0.05)
(0.582256 0.28331 0.05)
)


// ************************************************************************* //
