/*--------------------------------*- C++ -*----------------------------------*\
| =========                 |                                                 |
| \\      /  F ield         | OpenFOAM: The Open Source CFD Toolbox           |
|  \\    /   O peration     | Version:  v1806                                 |
|   \\  /    A nd           | Web:      www.OpenFOAM.com                      |
|    \\/     M anipulation  |                                                 |
\*---------------------------------------------------------------------------*/
FoamFile
{
    version     2.0;
    format      ascii;
    class       volScalarField;
    location    "0.01";
    object      p;
}
// * * * * * * * * * * * * * * * * * * * * * * * * * * * * * * * * * * * * * //

dimensions      [0 2 -2 0 0 0 0];


internalField   nonuniform List<scalar> 
5400
(
2.85202
2.12402
1.91826
1.82744
1.74536
1.67689
1.62123
1.57428
1.53355
1.49761
1.46546
1.43639
1.40987
1.38547
1.36285
1.34173
1.32187
1.30307
1.28514
1.26791
1.25123
1.23496
1.21894
1.20306
1.18719
1.17123
1.15507
1.13864
1.12186
1.10469
1.08709
1.06905
1.05057
1.03167
1.01238
0.992748
0.972817
0.952651
0.932313
0.91186
0.891341
0.87081
0.850317
0.829904
0.809598
0.789422
0.769397
0.749541
0.729866
0.710371
0.691053
0.671912
0.652945
0.63415
0.615518
0.597037
0.578694
0.560482
0.542393
0.524421
0.506556
0.488789
0.471108
0.453504
0.435971
0.418504
0.401099
0.38375
0.366451
0.349194
0.331975
0.314789
0.297634
0.280506
0.263405
0.246327
0.22927
0.212229
0.195203
0.178189
0.161186
0.144192
0.127208
0.110231
0.0932608
0.0762961
0.0593356
0.0423784
0.0254217
0.00847024
2.47127
1.97036
1.85174
1.79669
1.72849
1.66635
1.6141
1.5691
1.5296
1.49449
1.46293
1.43431
1.40813
1.38401
1.36162
1.34069
1.321
1.30235
1.28457
1.26747
1.25091
1.23475
1.21885
1.20307
1.18729
1.17141
1.15532
1.13894
1.12221
1.10506
1.08748
1.06943
1.05093
1.032
1.01268
0.992996
0.973016
0.952801
0.932415
0.911914
0.891349
0.870782
0.850259
0.829819
0.80949
0.789296
0.76926
0.749399
0.729721
0.710224
0.690907
0.671769
0.652809
0.634022
0.615397
0.596922
0.578586
0.560381
0.5423
0.524336
0.50648
0.488719
0.471044
0.453446
0.435918
0.418456
0.401056
0.383712
0.366417
0.349164
0.331948
0.314764
0.297611
0.280486
0.263388
0.246312
0.229256
0.212218
0.195193
0.17818
0.161178
0.144185
0.127202
0.110226
0.0932578
0.0762945
0.0593349
0.0423794
0.0254265
0.00847588
2.30903
1.86907
1.78807
1.75535
1.70062
1.64681
1.59986
1.55835
1.52122
1.48779
1.45747
1.42978
1.40434
1.38081
1.35891
1.3384
1.31909
1.30078
1.28329
1.26649
1.2502
1.23429
1.21862
1.20307
1.18749
1.17178
1.15585
1.13961
1.12296
1.10587
1.08831
1.07026
1.05172
1.03273
1.01332
0.993541
0.973454
0.953126
0.932629
0.912023
0.891367
0.870715
0.850118
0.829617
0.80924
0.789013
0.768954
0.749078
0.72939
0.709892
0.69058
0.671452
0.652505
0.633732
0.615122
0.596664
0.578345
0.560158
0.542095
0.524148
0.506307
0.488561
0.4709
0.453314
0.435799
0.41835
0.400961
0.383626
0.366339
0.349094
0.331885
0.314708
0.297562
0.280442
0.263349
0.246278
0.229226
0.212191
0.195169
0.17816
0.16116
0.14417
0.127189
0.110216
0.0932496
0.0762885
0.0593312
0.0423805
0.0254331
0.00847988
2.19202
1.78048
1.72377
1.70877
1.66654
1.62138
1.58045
1.54319
1.50913
1.47796
1.44935
1.423
1.39862
1.37596
1.35479
1.33492
1.31616
1.29836
1.28135
1.26497
1.2491
1.23359
1.21829
1.20308
1.18782
1.1724
1.15671
1.14065
1.12415
1.10716
1.08964
1.07157
1.05297
1.03387
1.01433
0.994392
0.97413
0.953622
0.932951
0.912184
0.891379
0.870593
0.849882
0.829289
0.808843
0.788564
0.768468
0.748568
0.728869
0.709371
0.690069
0.670957
0.65203
0.633279
0.614694
0.596262
0.577971
0.559812
0.541776
0.523856
0.506039
0.488316
0.470677
0.453112
0.435616
0.418185
0.400812
0.383492
0.366219
0.348986
0.331788
0.314622
0.297485
0.280374
0.263288
0.246224
0.229179
0.212149
0.195133
0.178128
0.161133
0.144147
0.127169
0.1102
0.0932368
0.0762788
0.0593245
0.0423773
0.0254313
0.00847821
2.10455
1.70612
1.66434
1.66211
1.63009
1.59274
1.55769
1.52486
1.49416
1.46557
1.43898
1.41424
1.39118
1.36961
1.34937
1.33031
1.31229
1.29514
1.27875
1.26296
1.24765
1.23266
1.21787
1.20313
1.18831
1.17327
1.15792
1.14214
1.12584
1.10897
1.09149
1.0734
1.05471
1.03546
1.01572
0.995556
0.975047
0.95429
0.933375
0.912378
0.891364
0.870396
0.849534
0.82882
0.808281
0.787931
0.767787
0.747858
0.728148
0.708654
0.689368
0.670279
0.65138
0.632662
0.614112
0.595717
0.577465
0.559344
0.541346
0.52346
0.505677
0.487986
0.470376
0.452839
0.43537
0.417963
0.400612
0.383313
0.366058
0.348841
0.331659
0.314506
0.297382
0.280283
0.263208
0.246153
0.229116
0.212094
0.195084
0.178085
0.161096
0.144115
0.127143
0.110178
0.0932193
0.0762654
0.0593149
0.0423715
0.0254281
0.00847665
2.03557
1.64363
1.61095
1.61763
1.59354
1.56277
1.53303
1.50444
1.4771
1.4512
1.42679
1.40382
1.38223
1.36192
1.34277
1.32467
1.30751
1.29118
1.27554
1.26048
1.24586
1.23154
1.21739
1.20326
1.189
1.17447
1.15955
1.14413
1.12809
1.11138
1.09396
1.07583
1.057
1.03755
1.01753
0.997054
0.976213
0.955121
0.933882
0.912581
0.891297
0.8701
0.849047
0.828182
0.807525
0.787091
0.76689
0.746932
0.727215
0.707731
0.688467
0.669411
0.650551
0.631876
0.613374
0.595029
0.576827
0.558755
0.540804
0.522964
0.505223
0.487572
0.47
0.452499
0.435063
0.417686
0.400363
0.383089
0.365857
0.348661
0.331497
0.314362
0.297254
0.280169
0.263107
0.246064
0.229037
0.212024
0.195023
0.178032
0.16105
0.144076
0.12711
0.110151
0.0931973
0.0762483
0.0593024
0.0423634
0.0254235
0.00847464
1.97868
1.59026
1.5633
1.57618
1.55809
1.53269
1.50754
1.48279
1.45864
1.43538
1.41316
1.39204
1.37202
1.35306
1.3351
1.31808
1.30192
1.28651
1.27175
1.25755
1.24376
1.23026
1.21689
1.2035
1.18995
1.17606
1.16169
1.14671
1.131
1.11448
1.09713
1.07894
1.05992
1.04017
1.0198
0.998907
0.977631
0.956103
0.934446
0.91276
0.891146
0.869666
0.848382
0.827334
0.806541
0.786013
0.765755
0.74577
0.726053
0.706588
0.687357
0.668345
0.649537
0.63092
0.612479
0.594197
0.576057
0.558046
0.540153
0.522368
0.504679
0.487077
0.469551
0.452093
0.434697
0.417357
0.400067
0.382823
0.365618
0.348447
0.331306
0.314192
0.297102
0.280035
0.262988
0.245958
0.228944
0.211942
0.194951
0.177969
0.160996
0.14403
0.127071
0.110119
0.0931712
0.0762278
0.0592871
0.0423533
0.0254175
0.00847227
1.93024
1.5439
1.52066
1.53791
1.52433
1.50323
1.48194
1.46056
1.43932
1.41855
1.39846
1.37917
1.36074
1.34319
1.3265
1.31064
1.29555
1.28117
1.26742
1.25419
1.24138
1.22882
1.21639
1.20392
1.19122
1.17811
1.16442
1.15
1.13469
1.11842
1.10114
1.08283
1.06356
1.04342
1.02256
1.00114
0.979296
0.957211
0.935033
0.912886
0.89086
0.869042
0.847487
0.826232
0.805289
0.784662
0.76435
0.744347
0.724641
0.705208
0.686026
0.667074
0.648334
0.629791
0.611426
0.593221
0.575156
0.557218
0.539395
0.521675
0.504049
0.486505
0.469033
0.451626
0.434276
0.416978
0.399727
0.382517
0.365344
0.348202
0.331088
0.313997
0.296929
0.279881
0.262852
0.245838
0.228838
0.211849
0.19487
0.177898
0.160935
0.143978
0.127027
0.110082
0.0931411
0.0762041
0.0592693
0.0423413
0.0254105
0.00846959
1.88801
1.50299
1.48226
1.50265
1.49248
1.47477
1.45667
1.4382
1.41955
1.40106
1.38298
1.36546
1.3486
1.33247
1.31707
1.30241
1.28847
1.27521
1.26256
1.25043
1.23871
1.22726
1.21594
1.20454
1.19288
1.18073
1.16788
1.15415
1.13934
1.12336
1.10614
1.08767
1.06804
1.04738
1.02589
1.00376
0.981192
0.958407
0.935585
0.91287
0.890365
0.868156
0.846296
0.824815
0.803717
0.782996
0.762641
0.742635
0.722956
0.703575
0.684461
0.665589
0.646938
0.628487
0.610215
0.592102
0.574127
0.556275
0.538534
0.520891
0.503337
0.48586
0.468451
0.451101
0.433803
0.416553
0.399345
0.382175
0.365038
0.347929
0.330844
0.31378
0.296736
0.27971
0.2627
0.245704
0.22872
0.211745
0.194779
0.177819
0.160866
0.143919
0.126978
0.110041
0.0931077
0.0761777
0.0592494
0.0423277
0.0254025
0.00846662
1.85053
1.4664
1.44744
1.47011
1.46254
1.44751
1.43204
1.41603
1.39963
1.38319
1.36695
1.3511
1.33575
1.32099
1.30689
1.29346
1.28071
1.26863
1.25716
1.24624
1.23575
1.22558
1.21554
1.20543
1.19501
1.18402
1.17222
1.15933
1.14515
1.12951
1.11234
1.09364
1.07352
1.05217
1.02983
1.00678
0.983293
0.959631
0.936019
0.912629
0.889568
0.866918
0.844727
0.823012
0.801764
0.780964
0.760585
0.740601
0.720975
0.701671
0.682651
0.663884
0.645344
0.627006
0.608847
0.590843
0.572973
0.555221
0.537574
0.520019
0.502548
0.485147
0.467808
0.450522
0.433283
0.416086
0.398927
0.381801
0.364703
0.34763
0.330578
0.313544
0.296526
0.279524
0.262535
0.245558
0.228591
0.211633
0.19468
0.177734
0.160792
0.143856
0.126924
0.109996
0.0930713
0.0761488
0.0592276
0.0423128
0.0253938
0.00846343
1.81681
1.4333
1.41562
1.43999
1.43441
1.42151
1.40817
1.39422
1.37978
1.36514
1.35057
1.33624
1.3223
1.30887
1.29602
1.28382
1.27228
1.26142
1.25121
1.24159
1.23248
1.22375
1.21519
1.2066
1.19768
1.18812
1.1776
1.16579
1.15238
1.13716
1.12003
1.101
1.0802
1.05791
1.03445
1.01021
0.985548
0.960795
0.936221
0.912041
0.888345
0.865213
0.842678
0.820736
0.799359
0.778508
0.75814
0.73821
0.718673
0.69948
0.680585
0.661952
0.643549
0.625348
0.607323
0.589448
0.5717
0.554062
0.536522
0.519067
0.501687
0.484372
0.46711
0.449895
0.432721
0.415582
0.398476
0.381398
0.364344
0.34731
0.330293
0.31329
0.296301
0.279325
0.262359
0.245403
0.228455
0.211513
0.194576
0.177643
0.160714
0.143789
0.126867
0.109949
0.0930324
0.076118
0.0592043
0.0422968
0.0253844
0.00846007
1.78615
1.40308
1.38635
1.41201
1.40796
1.39675
1.38514
1.37291
1.36012
1.34705
1.33394
1.32099
1.30835
1.29616
1.28451
1.27349
1.26316
1.25354
1.24464
1.23643
1.22883
1.2217
1.21486
1.20806
1.20096
1.19317
1.18426
1.17379
1.16137
1.14668
1.12959
1.11008
1.08835
1.06478
1.03984
1.01404
0.987871
0.96177
0.936063
0.910942
0.886536
0.862896
0.840023
0.817883
0.796419
0.775565
0.755255
0.735429
0.716026
0.696986
0.678255
0.65979
0.641554
0.623517
0.605649
0.587922
0.570313
0.552805
0.535385
0.518042
0.500764
0.483542
0.466365
0.449227
0.432122
0.415047
0.397997
0.380971
0.363964
0.346971
0.329992
0.313023
0.296065
0.279115
0.262174
0.24524
0.228311
0.211387
0.194466
0.177547
0.160632
0.143718
0.126808
0.109899
0.0929918
0.0760858
0.0591799
0.04228
0.0253745
0.00845657
1.75802
1.37528
1.35926
1.3859
1.38305
1.37317
1.36296
1.35214
1.34074
1.329
1.31717
1.30543
1.29396
1.2829
1.27236
1.26247
1.2533
1.24492
1.23737
1.23063
1.22466
1.21934
1.21448
1.2098
1.2049
1.1993
1.19244
1.18372
1.17258
1.15859
1.14151
1.12132
1.09831
1.07299
1.04605
1.01821
0.990123
0.962345
0.935274
0.909101
0.883932
0.859784
0.836612
0.814334
0.792852
0.772065
0.751883
0.732225
0.713014
0.694178
0.675656
0.657398
0.639364
0.621519
0.603833
0.586275
0.568824
0.551461
0.534174
0.516952
0.499786
0.482665
0.46558
0.448524
0.431494
0.414486
0.397497
0.380526
0.363567
0.34662
0.32968
0.312747
0.29582
0.278899
0.261983
0.245071
0.228163
0.211257
0.194353
0.177449
0.160547
0.143646
0.126746
0.109848
0.0929499
0.0760525
0.0591547
0.0422626
0.0253642
0.00845299
1.73205
1.34955
1.33406
1.36145
1.35953
1.3507
1.34162
1.33195
1.32168
1.31106
1.30031
1.28961
1.27915
1.26909
1.25956
1.2507
1.24263
1.23545
1.22924
1.22404
1.21982
1.2165
1.21391
1.21174
1.20953
1.20668
1.20245
1.19603
1.18661
1.17356
1.15649
1.13535
1.11054
1.08282
1.05317
1.02263
0.99209
0.962257
0.933585
0.90624
0.880282
0.855663
0.83227
0.809955
0.788559
0.767941
0.747978
0.728569
0.70962
0.691051
0.67279
0.654783
0.636987
0.619365
0.601886
0.584519
0.567243
0.55004
0.532898
0.515809
0.498763
0.48175
0.464763
0.447795
0.430844
0.413907
0.396982
0.380067
0.36316
0.346259
0.32936
0.312463
0.295569
0.278677
0.261788
0.2449
0.228013
0.211126
0.194238
0.17735
0.160462
0.143573
0.126684
0.109796
0.0929075
0.0760188
0.0591291
0.0422448
0.0253537
0.0084494
1.70793
1.32562
1.31053
1.3385
1.3373
1.32929
1.32108
1.31232
1.30298
1.29326
1.28339
1.27356
1.26394
1.25472
1.24605
1.23811
1.23104
1.22499
1.22008
1.21642
1.21404
1.21291
1.2129
1.21369
1.2148
1.21544
1.21466
1.21132
1.20427
1.19254
1.17549
1.15302
1.12566
1.09457
1.06121
1.02707
0.993414
0.961136
0.930611
0.90201
0.875287
0.850291
0.826809
0.804603
0.783441
0.763126
0.743501
0.724441
0.70584
0.687606
0.669665
0.651957
0.634437
0.61707
0.599824
0.582669
0.565586
0.548557
0.531573
0.514626
0.497707
0.480809
0.463925
0.447049
0.43018
0.413316
0.396457
0.379602
0.362748
0.345893
0.329037
0.312178
0.295317
0.278455
0.261592
0.244728
0.227862
0.210994
0.194124
0.177251
0.160376
0.1435
0.126622
0.109744
0.0928652
0.0759851
0.0591035
0.0422271
0.0253432
0.00844584
1.68544
1.30327
1.2885
1.31689
1.31623
1.30885
1.30132
1.29327
1.28463
1.27562
1.26644
1.25727
1.24832
1.23977
1.2318
1.22461
1.21839
1.21333
1.20964
1.20747
1.20697
1.20819
1.21108
1.21536
1.22053
1.22566
1.22947
1.23035
1.22663
1.21681
1.19986
1.17551
1.1445
1.10858
1.07005
1.03111
0.993464
0.95831
0.925796
0.895964
0.868604
0.843409
0.820039
0.798146
0.77741
0.757569
0.738427
0.719836
0.701679
0.683859
0.666299
0.648939
0.631736
0.614656
0.597667
0.580746
0.563871
0.547029
0.530213
0.513416
0.496631
0.479853
0.463075
0.446294
0.42951
0.412722
0.395931
0.379136
0.362336
0.345529
0.328715
0.311894
0.295066
0.278234
0.261398
0.244557
0.227713
0.210864
0.194011
0.177153
0.160292
0.143428
0.126562
0.109694
0.0928237
0.0759521
0.0590784
0.0422096
0.0253329
0.00844238
1.66443
1.28237
1.26781
1.29652
1.29626
1.28934
1.28231
1.27477
1.26665
1.25815
1.24946
1.24077
1.23229
1.2242
1.21673
1.21009
1.20452
1.20027
1.19762
1.19682
1.19815
1.20181
1.20788
1.21623
1.22639
1.2373
1.24727
1.25406
1.25512
1.24818
1.23154
1.20455
1.16815
1.12517
1.07932
1.03396
0.991568
0.952934
0.918378
0.887528
0.859834
0.834755
0.811791
0.79048
0.770407
0.751245
0.732754
0.714766
0.697159
0.679836
0.662722
0.645761
0.628913
0.612149
0.595443
0.578772
0.56212
0.545477
0.528836
0.512195
0.495549
0.478894
0.462226
0.445543
0.428845
0.412133
0.39541
0.378676
0.361929
0.34517
0.328399
0.311615
0.294821
0.278019
0.261208
0.244392
0.227568
0.210738
0.193901
0.177059
0.160211
0.143359
0.126503
0.109645
0.0927837
0.0759203
0.0590543
0.0421926
0.0253228
0.00843906
1.64477
1.26278
1.24838
1.27731
1.27733
1.27072
1.26403
1.25683
1.24905
1.24086
1.23246
1.22405
1.21582
1.20799
1.20078
1.19445
1.18927
1.18557
1.18368
1.18401
1.18698
1.19301
1.20246
1.21546
1.23165
1.25002
1.26839
1.28356
1.29165
1.28922
1.27344
1.24274
1.19818
1.14458
1.08814
1.03398
0.985702
0.94355
0.907277
0.875952
0.848512
0.824068
0.801937
0.781551
0.762424
0.744169
0.726512
0.709272
0.692325
0.675583
0.658977
0.642462
0.626006
0.609585
0.593181
0.576776
0.560358
0.543921
0.527462
0.510981
0.494477
0.477947
0.461389
0.444804
0.428192
0.411558
0.394902
0.378228
0.361535
0.344823
0.328093
0.311346
0.294585
0.277812
0.261027
0.244233
0.22743
0.210618
0.193798
0.176969
0.160134
0.143293
0.126448
0.109599
0.0927459
0.0758902
0.0590314
0.0421766
0.0253133
0.00843594
1.62638
1.24444
1.23013
1.2592
1.25939
1.25296
1.24646
1.23945
1.23183
1.22377
1.21547
1.20712
1.19892
1.1911
1.18389
1.17759
1.17249
1.16898
1.16749
1.16852
1.17273
1.18083
1.19358
1.2116
1.23499
1.26299
1.29294
1.32011
1.33822
1.3428
1.32928
1.29373
1.23649
1.16654
1.0949
1.02961
0.97402
0.928449
0.891242
0.860411
0.834156
0.811123
0.79041
0.771379
0.753517
0.736413
0.719777
0.703426
0.687246
0.671162
0.655123
0.639095
0.62306
0.607005
0.590918
0.574789
0.558613
0.542387
0.526113
0.509794
0.493431
0.477026
0.460578
0.44409
0.427564
0.411004
0.394415
0.3778
0.361158
0.344492
0.327803
0.311092
0.294362
0.277616
0.260857
0.244084
0.227301
0.210506
0.193701
0.176886
0.160063
0.143233
0.126397
0.109556
0.0927111
0.0758625
0.0590103
0.0421617
0.0253045
0.00843308
1.60921
1.22728
1.21303
1.24216
1.24242
1.23607
1.22963
1.22265
1.21502
1.20691
1.19851
1.19
1.1816
1.17353
1.16605
1.15945
1.15408
1.15034
1.14872
1.14986
1.1546
1.16404
1.17954
1.20257
1.23421
1.27435
1.32029
1.36628
1.39598
1.4078
1.4006
1.36089
1.28423
1.18915
1.09505
1.01527
0.952764
0.905301
0.868933
0.840184
0.816423
0.795816
0.777253
0.760082
0.743828
0.728116
0.712675
0.69734
0.682019
0.666659
0.651232
0.635724
0.620132
0.604455
0.588694
0.572847
0.556914
0.5409
0.52481
0.508651
0.492429
0.476147
0.459806
0.443412
0.426969
0.410482
0.393957
0.377398
0.360806
0.344184
0.327533
0.310856
0.294156
0.277436
0.2607
0.243948
0.227182
0.210404
0.193613
0.17681
0.159998
0.143178
0.126351
0.109518
0.0926798
0.0758376
0.0589914
0.0421484
0.0252966
0.00843055
1.59322
1.2113
1.19705
1.22618
1.22644
1.22005
1.21355
1.20646
1.19867
1.19033
1.18163
1.17275
1.1639
1.15531
1.14724
1.14002
1.13397
1.12952
1.12717
1.12761
1.1318
1.14122
1.15804
1.1851
1.2251
1.27818
1.34291
1.43334
1.52719
1.59608
1.59972
1.53747
1.396
1.22612
1.08369
0.984588
0.917087
0.871368
0.839159
0.814926
0.795335
0.778315
0.762698
0.747907
0.733598
0.719493
0.70539
0.691167
0.67677
0.662178
0.647391
0.632421
0.617281
0.601988
0.586554
0.570987
0.555295
0.539489
0.523578
0.507575
0.491488
0.475324
0.459086
0.442782
0.426418
0.41
0.393536
0.377029
0.360484
0.343902
0.327287
0.310642
0.29397
0.277274
0.260559
0.243826
0.227077
0.210313
0.193535
0.176744
0.159942
0.14313
0.126311
0.109484
0.0926527
0.0758161
0.058975
0.0421368
0.0252897
0.00842838
1.57841
1.19647
1.1822
1.21128
1.21145
1.20494
1.19826
1.19093
1.18283
1.17409
1.1649
1.15542
1.14587
1.13649
1.12754
1.11934
1.11223
1.10659
1.10286
1.10163
1.10379
1.11098
1.12617
1.1547
1.20546
1.29427
1.43112
1.47368
1.33512
1.10117
1.00808
1.08828
1.18888
1.18264
1.06725
0.932874
0.86158
0.824016
0.801322
0.784959
0.771483
0.759199
0.74724
0.735273
0.723173
0.71083
0.698153
0.685094
0.67165
0.657841
0.643701
0.629267
0.614575
0.599659
0.584544
0.569248
0.553788
0.53818
0.522441
0.506586
0.490626
0.474572
0.458431
0.442211
0.42592
0.409566
0.393158
0.3767
0.360197
0.343653
0.327071
0.310454
0.293807
0.277134
0.260438
0.243722
0.226987
0.210236
0.193469
0.176688
0.159895
0.14309
0.126277
0.109457
0.0926304
0.0757984
0.0589616
0.0421272
0.0252841
0.00842663
1.5648
1.18283
1.16849
1.19747
1.19749
1.19078
1.18383
1.17614
1.16758
1.15828
1.1484
1.13811
1.12762
1.11716
1.10703
1.09753
1.08899
1.08176
1.07611
1.07232
1.07082
1.07268
1.08073
1.10165
1.14627
1.19509
0.908947
-0.0395453
-1.30949
-2.20844
-2.41802
-1.95103
-1.16215
-0.141379
0.559918
0.761192
0.766
0.761037
0.756371
0.751736
0.746215
0.739547
0.731687
0.722778
0.713007
0.702477
0.691238
0.679334
0.666826
0.65378
0.640266
0.626348
0.612085
0.597526
0.582712
0.56767
0.552426
0.537003
0.521422
0.505702
0.48986
0.473907
0.457854
0.44171
0.425485
0.409189
0.392831
0.376416
0.359952
0.343441
0.326888
0.310296
0.293671
0.277017
0.260338
0.243636
0.226915
0.210174
0.193417
0.176644
0.159858
0.14306
0.126252
0.109436
0.0926135
0.0757851
0.0589515
0.04212
0.0252798
0.00842535
1.55241
1.17041
1.15598
1.18482
1.18464
1.17765
1.17033
1.16218
1.15304
1.14302
1.13227
1.12095
1.10926
1.09745
1.08582
1.07471
1.06447
1.05541
1.04761
1.04085
1.03452
1.028
1.02206
1.02189
0.976644
0.383045
-1.43308
-3.61101
-4.99537
-5.52163
-5.63327
-5.37223
-4.62421
-3.01273
-0.952562
0.291677
0.610679
0.689099
0.710637
0.718943
0.721873
0.720927
0.717105
0.711162
0.703627
0.69482
0.684935
0.674111
0.662472
0.650132
0.637194
0.623749
0.609878
0.595645
0.581103
0.566291
0.551241
0.535984
0.520543
0.504944
0.489206
0.473342
0.457366
0.441289
0.425122
0.408876
0.392561
0.376184
0.359752
0.34327
0.326741
0.310171
0.293565
0.276927
0.260262
0.243572
0.226861
0.210129
0.193379
0.176613
0.159832
0.143039
0.126235
0.109422
0.0926024
0.0757765
0.058945
0.0421153
0.025277
0.00842456
1.54129
1.15924
1.14471
1.17337
1.17295
1.16563
1.15787
1.14917
1.13933
1.12845
1.11666
1.10409
1.09095
1.07749
1.06404
1.051
1.03882
1.02787
1.01821
1.00913
0.998549
0.98255
0.956341
0.880561
0.173869
-2.1144
-4.62973
-5.56636
-5.79202
-5.66466
-5.52624
-5.64287
-5.81973
-5.45345
-3.30042
-0.679208
0.400128
0.618004
0.67467
0.692103
0.701433
0.705126
0.704642
0.701191
0.695564
0.688242
0.679528
0.669638
0.658752
0.647024
0.634585
0.621551
0.608019
0.594068
0.57976
0.565145
0.550262
0.535145
0.519825
0.504329
0.488678
0.472889
0.456978
0.440957
0.424838
0.408634
0.392354
0.376008
0.359603
0.343144
0.326635
0.310082
0.293491
0.276865
0.260211
0.24353
0.226827
0.210102
0.193358
0.176596
0.159818
0.143028
0.126227
0.109416
0.0925976
0.0757728
0.0589423
0.0421132
0.0252757
0.00842432
1.5315
1.1494
1.13474
1.16321
1.16251
1.15481
1.14657
1.13724
1.12661
1.11475
1.10176
1.08775
1.0729
1.05746
1.0418
1.02644
1.01199
0.999165
0.988388
0.97912
0.96833
0.947425
0.855469
0.26551
-2.16058
-4.85865
-5.53128
-5.24303
-3.92805
-2.57975
-2.11052
-2.45995
-4.08058
-5.28387
-4.95249
-1.90727
0.127033
0.562546
0.656137
0.675734
0.687342
0.693584
0.695221
0.693496
0.689266
0.683069
0.675259
0.666102
0.655811
0.644569
0.63253
0.619825
0.606565
0.59284
0.578721
0.564264
0.549514
0.53451
0.519286
0.50387
0.488289
0.472559
0.456699
0.440721
0.42464
0.408467
0.392215
0.375893
0.359508
0.343066
0.326572
0.310032
0.293451
0.276834
0.260187
0.243513
0.226814
0.210094
0.193352
0.176593
0.159818
0.143028
0.126228
0.109418
0.0925994
0.0757745
0.0589437
0.0421141
0.0252763
0.00842465
1.5231
1.14094
1.12615
1.15442
1.15341
1.14532
1.13655
1.12655
1.11506
1.10214
1.08782
1.07218
1.05536
1.0376
1.01926
1.00097
0.983607
0.968466
0.957164
0.950919
0.94916
0.92762
0.47694
-1.83163
-4.77883
-5.50468
-4.93405
-3.15225
-1.28638
-0.322248
-0.168937
-0.38642
-1.92708
-4.61102
-5.31201
-2.78748
-0.0801557
0.547505
0.65466
0.670154
0.6802
0.686828
0.689287
0.68844
0.685021
0.679525
0.672306
0.66364
0.653757
0.642853
0.631096
0.618626
0.605561
0.591998
0.578015
0.563672
0.549018
0.534095
0.518939
0.503581
0.488048
0.472361
0.456536
0.440589
0.424533
0.408382
0.392149
0.375842
0.35947
0.343038
0.326554
0.310021
0.293447
0.276835
0.260192
0.243521
0.226824
0.210105
0.193365
0.176606
0.15983
0.143041
0.126239
0.109428
0.0926082
0.0757818
0.0589494
0.042118
0.0252785
0.00842557
1.51616
1.13394
1.11902
1.14707
1.14577
1.13727
1.12797
1.11727
1.10491
1.09086
1.07513
1.05773
1.03872
1.01826
0.996685
0.974585
0.953022
0.933872
0.920544
0.919716
0.945951
0.742353
-1.20808
-4.50327
-5.52506
-4.95116
-3.05497
-1.28406
-0.406425
-0.17168
-0.198069
-0.291291
-1.48389
-4.2166
-5.12888
-3.07828
-0.195388
0.543013
0.657296
0.670016
0.678341
0.684393
0.686769
0.686094
0.682937
0.67772
0.670765
0.662335
0.65266
0.641936
0.630332
0.617993
0.605039
0.59157
0.577665
0.563388
0.548789
0.533912
0.518795
0.50347
0.487965
0.4723
0.456494
0.440563
0.424521
0.408381
0.392157
0.375857
0.359491
0.343064
0.326583
0.310053
0.29348
0.276869
0.260226
0.243555
0.226857
0.210137
0.193395
0.176634
0.159856
0.143064
0.12626
0.109446
0.0926241
0.0757948
0.0589594
0.0421249
0.0252827
0.00842711
1.51074
1.12847
1.11342
1.14127
1.13969
1.1308
1.12098
1.10961
1.09638
1.08122
1.06406
1.04483
1.02348
1.00003
0.974638
0.947685
0.920013
0.893353
0.87122
0.864795
0.849043
-0.354441
-3.61023
-5.26063
-5.01668
-3.11212
-1.36281
-0.580193
-0.342767
-0.259009
-0.209214
-0.291104
-1.8589
-4.28773
-4.83661
-2.69101
-0.0549846
0.564096
0.664104
0.673893
0.680996
0.685871
0.687497
0.686376
0.682989
0.67766
0.670656
0.662214
0.652546
0.641841
0.630261
0.617947
0.605017
0.591569
0.577682
0.56342
0.548834
0.533968
0.51886
0.503542
0.488042
0.472381
0.456578
0.440648
0.424606
0.408467
0.392241
0.37594
0.359572
0.343143
0.326659
0.310126
0.29355
0.276937
0.26029
0.243615
0.226914
0.210189
0.193444
0.176679
0.159897
0.1431
0.126292
0.109474
0.0926472
0.0758136
0.0589739
0.042135
0.0252887
0.00842926
1.50691
1.12459
1.10943
1.1371
1.13526
1.12602
1.11574
1.10375
1.08972
1.07352
1.05501
1.034
1.01031
0.98375
0.954177
0.92152
0.885924
0.847954
0.810671
0.786393
0.426671
-2.13899
-4.48345
-4.95888
-3.3168
-1.34366
-0.522695
-0.367253
-0.337155
-0.31438
-0.28102
-0.880635
-3.03758
-4.69182
-4.59616
-1.84875
0.23156
0.609828
0.675334
0.682103
0.687533
0.69066
0.691024
0.689042
0.685043
0.67927
0.67194
0.663256
0.653408
0.642566
0.630883
0.618489
0.605496
0.591998
0.57807
0.563773
0.549158
0.534267
0.519136
0.503799
0.488281
0.472604
0.456787
0.440844
0.42479
0.408639
0.392403
0.376092
0.359714
0.343276
0.326784
0.310243
0.293659
0.277038
0.260385
0.243702
0.226994
0.210263
0.19351
0.176739
0.159951
0.143149
0.126334
0.10951
0.0926776
0.0758382
0.0589929
0.0421483
0.0252966
0.00843202
1.50473
1.12237
1.10711
1.13464
1.13258
1.12305
1.11238
1.09989
1.08518
1.06809
1.0484
1.02581
0.999997
0.970517
0.936851
0.898322
0.854093
0.802727
0.749235
0.677206
-0.37389
-3.28692
-4.42828
-3.88576
-1.64575
-0.403883
-0.25062
-0.301148
-0.358672
-0.410289
-0.733298
-2.27858
-4.46285
-5.14327
-3.81983
-0.665448
0.506828
0.669641
0.691695
0.694678
0.697414
0.69826
0.69699
0.693806
0.68889
0.682404
0.674515
0.665391
0.655194
0.644077
0.632173
0.619602
0.606465
0.592848
0.578821
0.564441
0.549755
0.534803
0.519621
0.504238
0.488681
0.472969
0.45712
0.441149
0.425071
0.408897
0.392641
0.376311
0.359916
0.343463
0.326956
0.310402
0.293806
0.277173
0.260508
0.243816
0.227098
0.210357
0.193595
0.176815
0.160019
0.143209
0.126387
0.109555
0.0927152
0.0758687
0.0590163
0.0421647
0.0253064
0.0084354
1.50425
1.12185
1.10653
1.13395
1.13173
1.12198
1.11103
1.09816
1.08296
1.06521
1.04463
1.02085
0.993371
0.96154
0.924473
0.880908
0.829111
0.765739
0.700183
0.542882
-1.0771
-3.76904
-4.25804
-2.85888
-0.712534
-0.191345
-0.220281
-0.300934
-0.407386
-0.720096
-1.92047
-4.05328
-5.40933
-5.06846
-2.05114
0.260978
0.669861
0.710848
0.709213
0.709324
0.709379
0.707961
0.704932
0.70035
0.6943
0.686893
0.678255
0.668524
0.657835
0.646319
0.634091
0.621254
0.607898
0.594099
0.57992
0.565411
0.550616
0.535571
0.520307
0.504855
0.489236
0.473471
0.457575
0.441562
0.425446
0.40924
0.392954
0.376597
0.360178
0.343702
0.327175
0.310602
0.293989
0.277341
0.260661
0.243955
0.227224
0.210471
0.193698
0.176907
0.160101
0.143281
0.126449
0.109608
0.0927598
0.0759048
0.0590441
0.0421842
0.025318
0.00843938
1.5055
1.12308
1.10772
1.13507
1.13277
1.1229
1.11179
1.09872
1.08325
1.06513
1.04405
1.01957
0.991099
0.957844
0.918651
0.871834
0.815006
0.74352
0.668351
0.44935
-1.37304
-4.04338
-4.17544
-2.3526
-0.551882
-0.275938
-0.260865
-0.288537
-0.477612
-1.48353
-3.71518
-5.5506
-5.68625
-3.36446
-0.268088
0.610099
0.720316
0.72708
0.725589
0.724733
0.722717
0.719284
0.714483
0.708377
0.701037
0.692548
0.683011
0.672537
0.661238
0.64922
0.636578
0.6234
0.609759
0.595723
0.581343
0.566664
0.551724
0.536555
0.521185
0.505639
0.48994
0.474103
0.458145
0.442078
0.425913
0.409663
0.393338
0.376947
0.360496
0.343992
0.327439
0.310843
0.294208
0.27754
0.260843
0.244119
0.227373
0.210605
0.193818
0.177014
0.160196
0.143364
0.126522
0.10967
0.0928113
0.0759464
0.0590761
0.0422067
0.0253314
0.00844394
1.5085
1.12608
1.1107
1.13804
1.13572
1.12583
1.1147
1.10161
1.08611
1.06797
1.04686
1.02232
0.993741
0.960287
0.920711
0.873168
0.815013
0.741703
0.662907
0.490406
-1.21618
-4.14385
-4.25908
-2.67486
-0.857138
-0.455955
-0.316076
-0.267141
-0.904155
-3.10682
-5.52697
-6.01972
-4.49577
-1.01074
0.436599
0.700672
0.737142
0.742164
0.74323
0.74138
0.737458
0.732036
0.725383
0.717634
0.708873
0.699175
0.688622
0.6773
0.665297
0.652694
0.639566
0.625982
0.612003
0.597681
0.58306
0.568176
0.55306
0.537739
0.522238
0.50658
0.490781
0.474858
0.458824
0.442689
0.426465
0.410163
0.39379
0.377357
0.360868
0.344329
0.327746
0.311121
0.294461
0.27777
0.261051
0.244307
0.227542
0.210757
0.193955
0.177136
0.160303
0.143458
0.126603
0.10974
0.0928693
0.0759932
0.0591122
0.0422321
0.0253465
0.00844905
1.51326
1.13084
1.11548
1.14286
1.14059
1.13078
1.11977
1.10684
1.09157
1.07375
1.05306
1.02911
1.00134
0.968974
0.93088
0.885346
0.829815
0.759936
0.675951
0.5505
-0.656582
-3.63846
-4.4016
-3.42972
-1.49278
-0.685627
-0.371986
-0.719402
-2.55817
-5.05232
-6.16198
-5.37547
-1.86132
0.210526
0.658117
0.739843
0.758602
0.764794
0.764371
0.760148
0.7538
0.746107
0.737415
0.72788
0.717581
0.706574
0.694917
0.68267
0.669894
0.656644
0.642976
0.628938
0.614577
0.599931
0.585035
0.569915
0.554597
0.539102
0.523451
0.507661
0.491748
0.475725
0.459602
0.443389
0.427096
0.410732
0.394305
0.377823
0.36129
0.344712
0.328092
0.311435
0.294746
0.278027
0.261284
0.244518
0.227731
0.210927
0.194106
0.177271
0.160422
0.143563
0.126693
0.109817
0.0929335
0.076045
0.059152
0.0422602
0.0253632
0.00845469
1.51977
1.13737
1.12205
1.14951
1.14735
1.13771
1.12694
1.11434
1.09954
1.08234
1.06252
1.03975
1.01361
0.983514
0.948626
0.907699
0.858946
0.799812
0.728047
0.650148
0.012158
-2.50821
-4.63508
-4.56769
-3.58376
-2.57568
-2.21274
-3.165
-4.84935
-5.91993
-5.67045
-2.82263
0.0494975
0.677777
0.774545
0.791833
0.796903
0.795372
0.789481
0.78121
0.771635
0.761262
0.750306
0.73885
0.726921
0.714538
0.701722
0.688501
0.674906
0.66097
0.646723
0.632198
0.617423
0.602425
0.587228
0.57185
0.556309
0.540622
0.524803
0.508868
0.492827
0.476691
0.460469
0.444169
0.427799
0.411366
0.394877
0.37834
0.361757
0.345135
0.328475
0.311782
0.295059
0.278311
0.26154
0.244748
0.227939
0.211113
0.194272
0.177418
0.160552
0.143676
0.126792
0.1099
0.0930033
0.0761014
0.0591953
0.0422908
0.0253814
0.0084608
1.528
1.14563
1.13038
1.15794
1.15595
1.14655
1.13612
1.12399
1.10983
1.09352
1.0749
1.05377
1.02989
1.00295
0.972502
0.937958
0.898557
0.853416
0.800736
0.742031
0.532692
-0.791443
-3.28683
-4.88372
-5.34416
-5.43352
-5.45196
-5.64275
-5.64326
-5.54686
-3.40969
-0.18758
0.848201
0.901701
0.877496
0.857842
0.843764
0.83048
0.817142
0.803762
0.7904
0.777057
0.763689
0.750234
0.736635
0.722849
0.708853
0.69464
0.680209
0.665566
0.650722
0.635688
0.620481
0.605113
0.589597
0.573944
0.558166
0.542272
0.526273
0.51018
0.494001
0.477744
0.461414
0.445018
0.428563
0.412055
0.3955
0.378902
0.362266
0.345594
0.32889
0.312158
0.295399
0.278618
0.261817
0.244998
0.228163
0.211314
0.194451
0.177577
0.160692
0.143799
0.126898
0.10999
0.0930782
0.0761619
0.0592418
0.0423236
0.0254009
0.00846735
1.53792
1.15558
1.14041
1.16811
1.16632
1.15721
1.14717
1.13561
1.12222
1.10696
1.08976
1.07056
1.04929
1.02594
1.0005
0.973022
0.943819
0.91397
0.88615
0.868004
0.867245
0.508617
-0.839423
-2.77434
-4.24076
-5.09865
-5.55339
-5.30521
-4.53466