/*--------------------------------*- C++ -*----------------------------------*\
| =========                 |                                                 |
| \\      /  F ield         | OpenFOAM: The Open Source CFD Toolbox           |
|  \\    /   O peration     | Version:  v1806                                 |
|   \\  /    A nd           | Web:      www.OpenFOAM.com                      |
|    \\/     M anipulation  |                                                 |
\*---------------------------------------------------------------------------*/
FoamFile
{
    version     2.0;
    format      ascii;
    class       surfaceScalarField;
    location    "0.01";
    object      phi;
}
// * * * * * * * * * * * * * * * * * * * * * * * * * * * * * * * * * * * * * //

dimensions      [0 3 -1 0 0 0 0];
oriented        oriented;


internalField   nonuniform List<scalar> 
10650
(
0.00312343
0.000209902
0.0029959
0.000127534
0.00293265
6.32477e-05
0.00289994
3.27081e-05
0.00288088
1.90654e-05
0.00286861
1.22626e-05
0.00286017
8.44574e-06
0.00285401
6.16243e-06
0.00284931
4.6992e-06
0.00284561
3.6949e-06
0.00284263
2.97935e-06
0.0028402
2.43685e-06
0.00283817
2.02149e-06
0.00283648
1.69548e-06
0.00283506
1.41653e-06
0.00283387
1.19516e-06
0.00283286
1.00186e-06
0.00283204
8.23588e-07
0.00283136
6.76895e-07
0.00283083
5.36586e-07
0.00283043
4.01217e-07
0.00283014
2.87425e-07
0.00282996
1.799e-07
0.00282989
7.2608e-08
0.00282991
-1.89204e-08
0.00283
-9.76336e-08
0.00283017
-1.68376e-07
0.0028304
-2.26001e-07
0.00283067
-2.6882e-07
0.00283097
-3.00639e-07
0.00283128
-3.17973e-07
0.0028316
-3.14625e-07
0.0028319
-3.02328e-07
0.00283219
-2.8665e-07
0.00283244
-2.55718e-07
0.00283266
-2.13149e-07
0.00283282
-1.64873e-07
0.00283294
-1.21101e-07
0.00283302
-8.02372e-08
0.00283306
-3.47337e-08
0.00283304
1.37662e-08
0.00283299
5.31619e-08
0.00283291
8.32422e-08
0.0028328
1.06138e-07
0.00283267
1.29414e-07
0.00283252
1.5225e-07
0.00283235
1.66525e-07
0.00283218
1.73451e-07
0.00283201
1.73139e-07
0.00283183
1.72763e-07
0.00283166
1.73553e-07
0.00283149
1.74008e-07
0.00283132
1.6834e-07
0.00283116
1.60421e-07
0.00283101
1.49914e-07
0.00283087
1.40101e-07
0.00283074
1.31655e-07
0.00283061
1.2523e-07
0.00283049
1.18656e-07
0.00283038
1.09687e-07
0.00283028
9.97026e-08
0.00283019
8.95188e-08
0.00283011
8.11734e-08
0.00283004
7.48876e-08
0.00282997
7.02007e-08
0.0028299
6.56405e-08
0.00282984
5.89961e-08
0.00282979
5.28508e-08
0.00282974
4.6525e-08
0.0028297
4.11267e-08
0.00282967
3.68785e-08
0.00282963
3.35987e-08
0.0028296
3.11581e-08
0.00282957
2.88726e-08
0.00282955
2.62706e-08
0.00282952
2.31625e-08
0.0028295
1.98947e-08
0.00282949
1.66837e-08
0.00282947
1.40564e-08
0.00282946
1.21435e-08
0.00282945
1.09882e-08
0.00282944
1.03039e-08
0.00282943
9.63915e-09
0.00282942
8.30065e-09
0.00282941
7.40481e-09
0.00282941
7.05918e-09
0.0028294
8.74306e-09
0.00282938
1.35507e-08
0.00282933
5.61415e-08
5.14271e-08
0.00340377
0.000139461
0.00341498
0.000116328
0.00340335
7.48802e-05
0.00338834
4.77165e-05
0.00337569
3.17165e-05
0.00336584
2.21095e-05
0.00335824
1.60506e-05
0.00335232
1.20773e-05
0.00334764
9.38122e-06
0.00334387
7.46279e-06
0.00334079
6.06033e-06
0.00333823
4.99341e-06
0.0033361
4.15321e-06
0.0033343
3.49346e-06
0.00333278
2.93895e-06
0.0033315
2.47372e-06
0.00333042
2.08077e-06
0.00332953
1.72208e-06
0.0033288
1.40168e-06
0.00332822
1.11453e-06
0.00332778
8.48709e-07
0.00332746
6.01134e-07
0.00332728
3.66075e-07
0.00332719
1.55125e-07
0.00332721
-3.81863e-08
0.00332732
-2.02913e-07
0.00332751
-3.56111e-07
0.00332776
-4.77685e-07
0.00332805
-5.64667e-07
0.00332838
-6.25807e-07
0.00332872
-6.62131e-07
0.00332908
-6.69361e-07
0.00332942
-6.40711e-07
0.00332972
-5.92483e-07
0.00332999
-5.27458e-07
0.00333022
-4.44288e-07
0.00333041
-3.51509e-07
0.00333054
-2.53824e-07
0.00333062
-1.56368e-07
0.00333064
-5.95995e-08
0.00333063
3.01417e-08
0.00333057
1.07523e-07
0.00333048
1.76154e-07
0.00333035
2.323e-07
0.0033302
2.81366e-07
0.00333004
3.1789e-07
0.00332986
3.44629e-07
0.00332967
3.60929e-07
0.00332948
3.67115e-07
0.00332928
3.66466e-07
0.00332909
3.63283e-07
0.00332891
3.58771e-07
0.00332873
3.48715e-07
0.00332856
3.34036e-07
0.00332839
3.13109e-07
0.00332824
2.92608e-07
0.0033281
2.75498e-07
0.00332796
2.60488e-07
0.00332784
2.43373e-07
0.00332772
2.25459e-07
0.00332761
2.06303e-07
0.00332751
1.87934e-07
0.00332743
1.7097e-07
0.00332734
1.56465e-07
0.00332727
1.43653e-07
0.0033272
1.32072e-07
0.00332714
1.21147e-07
0.00332708
1.10077e-07
0.00332703
9.805e-08
0.00332699
8.68182e-08
0.00332695
7.73045e-08
0.00332691
6.97631e-08
0.00332688
6.37656e-08
0.00332685
5.81499e-08
0.00332682
5.27302e-08
0.0033268
4.69676e-08
0.00332678
4.10852e-08
0.00332676
3.54626e-08
0.00332674
3.03306e-08
0.00332673
2.62581e-08
0.00332672
2.3073e-08
0.00332671
2.04744e-08
0.0033267
1.8138e-08
0.00332669
1.59411e-08
0.00332668
1.41476e-08
0.00332668
1.26964e-08
0.00332667
1.24951e-08
0.00332667
1.32442e-08
0.0033267
3.28572e-08
2.65033e-08
0.00337743
9.53647e-05
0.00339819
9.55675e-05
0.00340101
7.20649e-05
0.00339647
5.22569e-05
0.0033901
3.80855e-05
0.00338391
2.82999e-05
0.00337845
2.15097e-05
0.00337382
1.67084e-05
0.00336993
1.32669e-05
0.00336667
1.07264e-05
0.00336392
8.80392e-06
0.00336159
7.32462e-06
0.00335961
6.13304e-06
0.00335793
5.17477e-06
0.00335648
4.38413e-06
0.00335526
3.69903e-06
0.00335423
3.10834e-06
0.00335337
2.58469e-06
0.00335266
2.11214e-06
0.0033521
1.67827e-06
0.00335168
1.26654e-06
0.00335139
8.91431e-07
0.0033512
5.49938e-07
0.00335114
2.23247e-07
0.00335118
-8.19974e-08
0.00335132
-3.43173e-07
0.00335152
-5.61224e-07
0.00335179
-7.46378e-07
0.00335212
-8.96752e-07
0.00335249
-9.90671e-07
0.00335286
-1.03705e-06
0.00335324
-1.0397e-06
0.00335359
-1.0001e-06
0.00335393
-9.26864e-07
0.00335422
-8.17163e-07
0.00335446
-6.84015e-07
0.00335465
-5.4191e-07
0.00335478
-3.86026e-07
0.00335485
-2.3005e-07
0.00335487
-7.98375e-08
0.00335485
5.33728e-08
0.00335478
1.75527e-07
0.00335468
2.80498e-07
0.00335454
3.68533e-07
0.00335438
4.40724e-07
0.00335421
4.95756e-07
0.00335401
5.36119e-07
0.00335382
5.54799e-07
0.00335362
5.64128e-07
0.00335342
5.65483e-07
0.00335323
5.62677e-07
0.00335303
5.50967e-07
0.00335285
5.30307e-07
0.00335268
5.05179e-07
0.00335252
4.76517e-07
0.00335236
4.49163e-07
0.00335221
4.22097e-07
0.00335208
3.9595e-07
0.00335195
3.68097e-07
0.00335184
3.39917e-07
0.00335173
3.11977e-07
0.00335164
2.84394e-07
0.00335155
2.59584e-07
0.00335147
2.37935e-07
0.00335139
2.1877e-07
0.00335132
1.99904e-07
0.00335126
1.82423e-07
0.00335121
1.64074e-07
0.00335116
1.46747e-07
0.00335112
1.31453e-07
0.00335107
1.17999e-07
0.00335104
1.06692e-07
0.003351
9.67261e-08
0.00335098
8.746e-08
0.00335095
7.85205e-08
0.00335093
6.98008e-08
0.00335091
6.11798e-08
0.00335089
5.33405e-08
0.00335087
4.63162e-08
0.00335086
4.05178e-08
0.00335085
3.54827e-08
0.00335084
3.10504e-08
0.00335083
2.68443e-08
0.00335082
2.29944e-08
0.00335081
1.9201e-08
0.00335081
1.58382e-08
0.00335081
1.30724e-08
0.00335081
1.05421e-08
0.00335083
1.23583e-08
1.48518e-09
0.00335794
7.07599e-05
0.00337529
7.82161e-05
0.00338229
6.50603e-05
0.00338312
5.14262e-05
0.00338104
4.01673e-05
0.00337786
3.14804e-05
0.00337444
2.49322e-05
0.00337117
1.99823e-05
0.0033682
1.62308e-05
0.00336557
1.33595e-05
0.00336327
1.11058e-05
0.00336126
9.33271e-06
0.0033595
7.89598e-06
0.00335797
6.69876e-06
0.00335666
5.69624e-06
0.00335553
4.83363e-06
0.00335455
4.08124e-06
0.00335374
3.40218e-06
0.00335308
2.76983e-06
0.00335256
2.19892e-06
0.00335215
1.67493e-06
0.00335187
1.17007e-06
0.00335173
6.87547e-07
0.00335171
2.50099e-07
0.00335177
-1.45719e-07
0.00335193
-5.06088e-07
0.00335219
-8.14103e-07
0.00335251
-1.0736e-06
0.00335288
-1.26627e-06
0.00335329
-1.39561e-06
0.00335371
-1.45827e-06
0.00335413
-1.45874e-06
0.00335453
-1.39906e-06
0.00335489
-1.28617e-06
0.0033552
-1.12953e-06
0.00335546
-9.44028e-07
0.00335565
-7.35734e-07
0.00335578
-5.17081e-07
0.00335585
-2.97792e-07
0.00335586
-9.44283e-08
0.00335583
9.32105e-08
0.00335574
2.59383e-07
0.00335562
4.02364e-07
0.00335546
5.23692e-07
0.00335529
6.1899e-07
0.00335509
6.88816e-07
0.00335489
7.35185e-07
0.00335469
7.62379e-07
0.00335448
7.75109e-07
0.00335426
7.76239e-07
0.00335406
7.66143e-07
0.00335387
7.45356e-07
0.00335368
7.15783e-07
0.00335351
6.81232e-07
0.00335334
6.43637e-07
0.00335318
6.04941e-07
0.00335304
5.68539e-07
0.0033529
5.30527e-07
0.00335278
4.92026e-07
0.00335266
4.54042e-07
0.00335256
4.16093e-07
0.00335246
3.80022e-07
0.00335238
3.47678e-07
0.00335229
3.18469e-07
0.00335222
2.91354e-07
0.00335216
2.65749e-07
0.0033521
2.41204e-07
0.00335204
2.17214e-07
0.003352
1.95106e-07
0.00335195
1.75211e-07
0.00335191
1.57734e-07
0.00335188
1.42335e-07
0.00335185
1.28583e-07
0.00335182
1.15648e-07
0.00335179
1.03498e-07
0.00335177
9.19863e-08
0.00335175
8.0947e-08
0.00335173
7.09036e-08
0.00335172
6.19947e-08
0.0033517
5.41276e-08
0.00335169
4.71812e-08
0.00335168
4.08529e-08
0.00335167
3.5195e-08
0.00335167
2.9533e-08
0.00335166
2.38699e-08
0.00335166
1.83263e-08
0.00335166
1.28554e-08
0.00335166
6.82753e-09
0.00335167
1.28236e-09
-1.01217e-08
0.00334821
5.58817e-05
0.00336138
6.50503e-05
0.00336888
5.75575e-05
0.00337198
4.83277e-05
0.00337235
3.97937e-05
0.00337126
3.25699e-05
0.00336947
2.67237e-05
0.0033674
2.20486e-05
0.00336533
1.83098e-05
0.00336334
1.53451e-05
0.00336149
1.29552e-05
0.00335982
1.10011e-05
0.00335833
9.38728e-06
0.003357
8.03076e-06
0.00335581
6.88202e-06
0.00335477
5.87205e-06
0.0033539
4.9576e-06
0.00335316
4.14322e-06
0.00335252
3.40277e-06
0.00335202
2.69984e-06
0.00335167
2.0278e-06
0.00335144
1.39755e-06
0.00335132
8.095e-07
0.00335131
2.56386e-07
0.00335143
-2.65054e-07
0.00335165
-7.23899e-07
0.00335196
-1.12258e-06
0.00335234
-1.45037e-06
0.00335277
-1.7032e-06
0.00335325
-1.86851e-06
0.00335373
-1.94493e-06
0.00335421
-1.93619e-06
0.00335466
-1.84787e-06
0.00335506
-1.6902e-06
0.00335541
-1.47661e-06
0.00335569
-1.22079e-06
0.00335589
-9.38162e-07
0.00335602
-6.46526e-07
0.00335608
-3.59502e-07
0.00335608
-9.15228e-08
0.00335602
1.52797e-07
0.00335591
3.68108e-07
0.00335576
5.52797e-07
0.00335558
7.02868e-07
0.00335538
8.18194e-07
0.00335517
9.01252e-07
0.00335495
9.56221e-07
0.00335472
9.88024e-07
0.0033545
1.00051e-06
0.00335428
9.96491e-07
0.00335407
9.77626e-07
0.00335386
9.46803e-07
0.00335367
9.06555e-07
0.00335349
8.6098e-07
0.00335333
8.11589e-07
0.00335317
7.63511e-07
0.00335302
7.14587e-07
0.00335289
6.64618e-07
0.00335276
6.14958e-07
0.00335265
5.65993e-07
0.00335255
5.1853e-07
0.00335245
4.74309e-07
0.00335237
4.33891e-07
0.00335229
3.96728e-07
0.00335222
3.62035e-07
0.00335216
3.29072e-07
0.0033521
2.98148e-07
0.00335205
2.68785e-07
0.003352
2.41794e-07
0.00335196
2.17615e-07
0.00335192
1.95949e-07
0.00335189
1.76593e-07
0.00335186
1.58981e-07
0.00335183
1.4264e-07
0.00335181
1.27436e-07
0.00335178
1.13298e-07
0.00335176
9.98929e-08
0.00335175
8.78899e-08
0.00335173
7.6888e-08
0.00335172
6.71261e-08
0.00335171
5.83672e-08
0.0033517
5.0335e-08
0.00335169
4.28954e-08
0.00335169
3.56389e-08
0.00335168
2.81595e-08
0.00335168
2.06735e-08
0.00335168
1.29039e-08
0.00335168
4.30475e-09
0.00335169
-4.50357e-09
-1.60084e-08
0.00334312
4.60983e-05
0.00335297
5.51946e-05
0.00335972
5.08087e-05
0.00336355
4.45033e-05
0.00336519
3.81527e-05
0.0033654
3.23602e-05
0.00336477
2.73476e-05
0.00336367
2.31502e-05
0.00336233
1.96526e-05
0.00336092
1.67519e-05
0.00335954
1.43391e-05
0.00335822
1.23225e-05
0.00335697
1.06358e-05
0.00335582
9.18131e-06
0.0033548
7.89966e-06
0.00335389
6.7764e-06
0.00335308
5.77154e-06
0.00335238
4.8416e-06
0.00335182
3.96729e-06
0.00335138
3.1405e-06
0.00335105
2.35609e-06
0.00335084
1.60747e-06
0.00335076
8.88496e-07
0.00335081
2.0544e-07
0.00335098
-4.29804e-07
0.00335125
-1.00047e-06
0.00335163
-1.49814e-06
0.00335209
-1.91095e-06
0.00335261
-2.22693e-06
0.00335317
-2.42659e-06
0.00335374
-2.5159e-06
0.0033543
-2.49321e-06
0.00335482
-2.36725e-06
0.00335528
-2.15185e-06
0.00335567
-1.86323e-06
0.00335597
-1.52188e-06
0.00335618
-1.15058e-06
0.00335631
-7.72855e-07
0.00335635
-4.07287e-07
0.00335633
-6.35627e-08
0.00335623
2.43578e-07
0.00335609
5.11875e-07
0.00335591
7.35718e-07
0.0033557
9.13436e-07
0.00335547
1.04746e-06
0.00335523
1.14208e-06
0.00335498
1.20324e-06
0.00335473
1.23533e-06
0.00335449
1.24284e-06
0.00335426
1.22945e-06
0.00335404
1.19909e-06
0.00335383
1.15594e-06
0.00335363
1.10361e-06
0.00335345
1.04518e-06
0.00335327
9.83598e-07
0.00335312
9.21404e-07
0.00335297
8.59768e-07
0.00335284
7.97406e-07
0.00335272
7.36037e-07
0.00335261
6.76367e-07
0.00335251
6.19171e-07
0.00335241
5.6623e-07
0.00335233
5.17343e-07
0.00335226
4.72045e-07
0.00335219
4.29775e-07
0.00335213
3.90062e-07
0.00335207
3.52824e-07
0.00335202
3.18225e-07
0.00335198
2.86498e-07
0.00335194
2.5791e-07
0.0033519
2.3224e-07
0.00335187
2.09016e-07
0.00335184
1.87801e-07
0.00335181
1.68254e-07
0.00335179
1.50178e-07
0.00335177
1.33406e-07
0.00335175
1.17883e-07
0.00335174
1.03709e-07
0.00335172
9.08908e-08
0.00335171
7.93478e-08
0.0033517
6.90386e-08
0.00335169
5.94167e-08
0.00335168
5.01985e-08
0.00335168
4.12568e-08
0.00335167
3.23257e-08
0.00335167
2.31022e-08
0.00335167
1.36006e-08
0.00335167
3.16312e-09
0.00335168
-7.17966e-09
-1.89607e-08
0.00334021
3.92238e-05
0.0033477
4.77013e-05
0.00335343
4.50758e-05
0.00335725
4.06892e-05
0.00335945
3.59533e-05
0.00336042
3.13852e-05
0.00336055
2.72201e-05
0.00336014
2.35551e-05
0.00335942
2.03755e-05
0.00335852
1.76522e-05
0.00335752
1.53433e-05
0.00335649
1.33524e-05
0.0033555
1.1621e-05
0.00335457
1.01172e-05
0.00335368
8.7899e-06
0.00335286
7.59202e-06
0.00335214
6.49069e-06
0.00335152
5.46112e-06
0.003351
4.48738e-06
0.00335059
3.55619e-06
0.00335029
2.65376e-06
0.00335012
1.77504e-06
0.00335008
9.24407e-07
0.00335018
1.10793e-07
0.0033504
-6.52732e-07
0.00335075
-1.35138e-06
0.00335122
-1.96363e-06
0.00335178
-2.4713e-06
0.00335241
-2.85526e-06
0.00335308
-3.09896e-06
0.00335376
-3.198e-06
0.00335442
-3.15512e-06
0.00335503
-2.97805e-06
0.00335557
-2.6844e-06
0.003356
-2.2991e-06
0.00335633
-1.85159e-06
0.00335656
-1.37326e-06
0.00335667
-8.91964e-07
0.0033567
-4.29149e-07
0.00335663
3.66266e-10
0.0033565
3.76568e-07
0.00335631
6.99029e-07
0.00335609
9.61567e-07
0.00335583
1.16571e-06
0.00335557
1.31612e-06
0.00335529
1.41902e-06
0.00335501
1.48071e-06
0.00335474
1.5074e-06
0.00335448
1.50486e-06
0.00335423
1.47815e-06
0.00335399
1.4331e-06
0.00335378
1.3744e-06
0.00335357
1.30647e-06
0.00335339
1.23296e-06
0.00335321
1.15729e-06
0.00335305
1.0808e-06
0.00335291
1.00425e-06
0.00335278
9.28334e-07
0.00335266
8.54345e-07
0.00335255
7.83725e-07
0.00335245
7.17053e-07
0.00335236
6.55041e-07
0.00335228
5.97496e-07
0.00335221
5.44033e-07
0.00335215
4.94155e-07
0.00335209
4.47741e-07
0.00335204
4.04662e-07
0.00335199
3.65102e-07
0.00335195
3.2879e-07
0.00335191
2.95881e-07
0.00335188
2.66182e-07
0.00335185
2.39211e-07
0.00335182
2.14637e-07
0.0033518
1.92103e-07
0.00335178
1.71378e-07
0.00335176
1.52217e-07
0.00335174
1.34635e-07
0.00335172
1.18551e-07
0.00335171
1.03948e-07
0.0033517
9.07367e-08
0.00335169
7.86977e-08
0.00335168
6.79161e-08
0.00335168
5.7241e-08
0.00335167
4.66099e-08
0.00335167
3.62616e-08
0.00335166
2.57742e-08
0.00335166
1.49668e-08
0.00335166
3.27438e-09
0.00335166
-7.93556e-09
-2.00299e-08
0.00333843
3.41312e-05
0.00334424
4.18906e-05
0.00334903
4.02781e-05
0.00335257
3.71519e-05
0.00335491
3.3618e-05
0.00335626
3.00294e-05
0.00335689
2.65942e-05
0.00335699
2.34535e-05
0.0033567
2.06621e-05
0.00335617
1.81842e-05
0.00335551
1.60006e-05
0.00335478
1.40874e-05
0.003354
1.24003e-05
0.00335322
1.0899e-05
0.00335247
9.54266e-06
0.00335176
8.29562e-06
0.00335112
7.13283e-06
0.00335055
6.03313e-06
0.00335006
4.9742e-06
0.00334968
3.93883e-06
0.00334941
2.91907e-06
0.00334927
1.91345e-06
0.00334927
9.27235e-07
0.00334941
-3.15117e-08
0.00334971
-9.44347e-07
0.00335014
-1.78934e-06
0.00335071
-2.53327e-06
0.0033514
-3.15399e-06
0.00335216
-3.62155e-06
0.00335298
-3.91563e-06
0.00335381
-4.02588e-06
0.0033546
-3.9508e-06
0.00335533
-3.70219e-06
0.00335595
-3.30574e-06
0.00335645
-2.7965e-06
0.00335681
-2.21514e-06
0.00335704
-1.60183e-06
0.00335714
-9.91776e-07
0.00335712
-4.11889e-07
0.00335701
1.12339e-07
0.00335682
5.6519e-07
0.00335658
9.43314e-07
0.00335629
1.24412e-06
0.00335599
1.47169e-06
0.00335567
1.63348e-06
0.00335535
1.73817e-06
0.00335504
1.79385e-06
0.00335474
1.8086e-06
0.00335445
1.78975e-06
0.00335418
1.74458e-06
0.00335394
1.68017e-06
0.00335371
1.60222e-06
0.0033535
1.51592e-06
0.00335331
1.4249e-06
0.00335313
1.33269e-06
0.00335297
1.23915e-06
0.00335283
1.1466e-06
0.0033527
1.05619e-06
0.00335259
9.69704e-07
0.00335248
8.87777e-07
0.00335239
8.11061e-07
0.00335231
7.39882e-07
0.00335223
6.73768e-07
0.00335216
6.11706e-07
0.0033521
5.54563e-07
0.00335205
5.01679e-07
0.003352
4.53083e-07
0.00335196
4.08971e-07
0.00335192
3.67922e-07
0.00335188
3.31e-07
0.00335185
2.97491e-07
0.00335182
2.67024e-07
0.0033518
2.39271e-07
0.00335178
2.13905e-07
0.00335176
1.90692e-07
0.00335174
1.69405e-07
0.00335172
1.49938e-07
0.00335171
1.32136e-07
0.0033517
1.15934e-07
0.00335169
1.01258e-07
0.00335168
8.77886e-08
0.00335167
7.55445e-08
0.00335167
6.35125e-08
0.00335166
5.17469e-08
0.00335166
4.01648e-08
0.00335165
2.86031e-08
0.00335165
1.69077e-08
0.00335165
4.47309e-09
0.00335165
-7.4211e-09
-1.97195e-08
0.00333727
3.01988e-05
0.0033419
3.7258e-05
0.00334589
3.62889e-05
0.00334903
3.40095e-05
0.00335133
3.13145e-05
0.00335288
2.84835e-05
0.00335377
2.57017e-05
0.00335417
2.30559e-05
0.00335422
2.06138e-05
0.003354
1.83971e-05
0.00335361
1.63997e-05
0.00335308
1.46098e-05
0.00335249
1.29972e-05
0.00335186
1.15283e-05
0.00335122
1.01764e-05
0.0033506
8.91604e-06
0.00335001
7.72077e-06
0.00334948
6.56624e-06
0.00334902
5.43145e-06
0.00334866
4.30194e-06
0.00334841
3.17017e-06
0.00334829
2.03536e-06
0.00334831
9.01584e-07
0.0033485
-2.21866e-07
0.00334887
-1.30613e-06
0.0033494
-2.32161e-06
0.00335009
-3.22864e-06
0.00335093
-3.9882e-06
0.00335187
-4.56213e-06
0.00335287
-4.9189e-06
0.00335388
-5.03819e-06
0.00335485
-4.91645e-06
0.00335572
-4.57142e-06
0.00335645
-4.03896e-06
0.00335702
-3.36796e-06
0.00335742
-2.613e-06
0.00335765
-1.82757e-06
0.00335771
-1.05854e-06
0.00335764
-3.36338e-07
0.00335746
2.91469e-07
0.0033572
8.27252e-07
0.00335688
1.26272e-06
0.00335652
1.5992e-06
0.00335615
1.84446e-06
0.00335577
2.00968e-06
0.00335541
2.10686e-06
0.00335505
2.14769e-06
0.00335472
2.14214e-06
0.00335441
2.09991e-06
0.00335412
2.03007e-06
0.00335386
1.94105e-06
0.00335362
1.83979e-06
0.00335341
1.73154e-06
0.00335321
1.61981e-06
0.00335304
1.50714e-06
0.00335288
1.39516e-06
0.00335274
1.28578e-06
0.00335262
1.1806e-06
0.00335251
1.08098e-06
0.00335241
9.87596e-07
0.00335232
9.00528e-07
0.00335224
8.19616e-07
0.00335217
7.44435e-07
0.00335211
6.74698e-07
0.00335205
6.10477e-07
0.003352
5.51688e-07
0.00335195
4.97745e-07
0.00335192
4.48439e-07
0.00335188
4.03571e-07
0.00335185
3.62797e-07
0.00335182
3.25752e-07
0.00335179
2.92072e-07
0.00335177
2.61424e-07
0.00335175
2.33515e-07
0.00335174
2.08057e-07
0.00335172
1.84768e-07
0.00335171
1.63626e-07
0.00335169
1.44227e-07
0.00335168
1.26651e-07
0.00335167
1.10729e-07
0.00335167
9.60346e-08
0.00335166
8.23206e-08
0.00335165
6.92235e-08
0.00335165
5.64578e-08
0.00335164
4.39607e-08
0.00335164
3.16346e-08
0.00335164
1.92599e-08
0.00335164
6.35559e-09
0.00335164
-5.95601e-09
-1.83328e-08
0.00333645
2.70782e-05
0.00334021
3.35058e-05
0.00334358
3.29166e-05
0.00334637
3.12132e-05
0.00334853
2.91596e-05
0.00335009
2.69269e-05
0.00335113
2.46593e-05
0.00335174
2.24453e-05
0.00335201
2.03445e-05
0.00335201
1.83954e-05
0.00335181
1.66026e-05
0.00335146
1.49559e-05
0.00335102
1.34407e-05
0.00335051
1.20374e-05
0.00334996
1.07235e-05
0.0033494
9.47567e-06
0.00334886
8.2678e-06
0.00334835
7.07561e-06
0.0033479
5.88013e-06
0.00334753
4.66748e-06
0.00334727
3.42792e-06
0.00334715
2.15714e-06
0.00334719
8.59542e-07
0.00334742
-4.51487e-07
0.00334785
-1.73634e-06
0.00334849
-2.96056e-06
0.00334933
-4.07045e-06
0.00335036
-5.00976e-06
0.00335152
-5.72222e-06
0.00335276
-6.15864e-06
0.00335401
-6.28745e-06
0.00335519
-6.10207e-06
0.00335625
-5.62702e-06
0.00335712
-4.91202e-06
0.00335778
-4.02483e-06
0.0033582
-3.04138e-06
0.00335841
-2.03548e-06
0.00335842
-1.06954e-06
0.00335827
-1.80968e-07
0.00335799
5.64838e-07
0.00335763
1.18879e-06
0.00335722
1.67989e-06
0.00335677
2.04528e-06
0.00335632
2.29832e-06
0.00335587
2.45511e-06
0.00335544
2.53291e-06
0.00335505
2.54698e-06
0.00335468
2.51104e-06
0.00335434
2.43667e-06
0.00335403
2.335e-06
0.00335376
2.21548e-06
0.00335351
2.08569e-06
0.0033533
1.95106e-06
0.0033531
1.81508e-06
0.00335293
1.68007e-06
0.00335277
1.54797e-06
0.00335264
1.42068e-06
0.00335252
1.29988e-06
0.00335241
1.18679e-06
0.00335232
1.08158e-06
0.00335224
9.83789e-07
0.00335216
8.9317e-07
0.0033521
8.09336e-07
0.00335204
7.32007e-07
0.00335199
6.61318e-07
0.00335195
5.96583e-07
0.00335191
5.37534e-07
0.00335187
4.83929e-07
0.00335184
4.35166e-07
0.00335181
3.90844e-07
0.00335179
3.50576e-07
0.00335176
3.14013e-07
0.00335174
2.80833e-07
0.00335173
2.50678e-07
0.00335171
2.23193e-07
0.0033517
1.98103e-07
0.00335169
1.75448e-07
0.00335168
1.54719e-07
0.00335167
1.35964e-07
0.00335166
1.19105e-07
0.00335165
1.0314e-07
0.00335165
8.83831e-08
0.00335164
7.42878e-08
0.00335164
6.06911e-08
0.00335163
4.75654e-08
0.00335163
3.46732e-08
0.00335163
2.18196e-08
0.00335162
8.74669e-09
0.00335162
-3.76201e-09
-1.61209e-08
0.00333589
2.45227e-05
0.00333901
3.03834e-05
0.00334188
3.00508e-05
0.00334432
2.87689e-05
0.0033463
2.71766e-05
0.00334783
2.54063e-05
0.00334893
2.35587e-05
0.00334965
2.17187e-05
0.00335006
1.99369e-05
0.00335021
1.82445e-05
0.00335016
1.66546e-05
0.00334995
1.51664e-05
0.00334962
1.37724e-05
0.00334919
1.24599e-05
0.00334871
1.12088e-05
0.00334819
9.99506e-06
0.00334766
8.79472e-06
0.00334715
7.58562e-06
0.00334668
6.3478e-06
0.00334629
5.06305e-06
0.003346
3.71681e-06
0.00334586
2.30211e-06
0.00334589
8.23744e-07
0.00334614
-6.99192e-07
0.00334663
-2.22901e-06
0.00334738
-3.714e-06
0.0033484
-5.08453e-06
0.00334965
-6.26056e-06
0.00335109
-7.15784e-06
0.00335263
-7.70224e-06
0.00335419
-7.84681e-06
0.00335566
-7.57518e-06
0.00335696
-6.9227e-06
0.003358
-5.95806e-06
0.00335876
-4.77775e-06
0.00335921
-3.49126e-06
0.00335937
-2.20145e-06
0.00335929
-9.89414e-07
0.00335903
8.51243e-08
0.00335862
9.70552e-07
0.00335813
1.68328e-06
0.00335758
2.2223e-06
0.00335702
2.6036e-06
0.00335647
2.84874e-06
0.00335595
2.98097e-06
0.00335546
3.02317e-06
0.00335501
2.99591e-06
0.0033546
2.91672e-06
0.00335424
2.80008e-06
0.00335392
2.65832e-06
0.00335363
2.50147e-06
0.00335338
2.33761e-06
0.00335316
2.17217e-06
0.00335296
2.00861e-06
0.0033528
1.84908e-06
0.00335265
1.69543e-06
0.00335252
1.54945e-06
0.00335241
1.41254e-06
0.00335231
1.2854e-06
0.00335222
1.16791e-06
0.00335215
1.05953e-06
0.00335208
9.59558e-07
0.00335202
8.6751e-07
0.00335197
7.83075e-07
0.00335193
7.0594e-07
0.00335189
6.35778e-07
0.00335185
5.72204e-07
0.00335182
5.14574e-07
0.00335179
4.62243e-07
0.00335177
4.14759e-07
0.00335175
3.71691e-07
0.00335173
3.3262e-07
0.00335171
2.9721e-07
0.0033517
2.65041e-07
0.00335169
2.358e-07
0.00335168
2.09268e-07
0.00335167
1.85318e-07
0.00335166
1.63604e-07
0.00335165
1.43809e-07
0.00335164
1.25949e-07
0.00335164
1.091e-07
0.00335163
9.34768e-08
0.00335163
7.86754e-08
0.00335162
6.45013e-08
0.00335162
5.08505e-08
0.00335162
3.75715e-08
0.00335161
2.4534e-08
0.00335161
1.14692e-08
0.00335161
-1.07857e-09
-1.331e-08
0.00333548
2.23781e-05
0.00333811
2.77526e-05
0.00334057
2.7585e-05
0.00334273
2.66135e-05
0.00334454
2.53637e-05
0.00334599
2.39551e-05
0.00334709
2.24595e-05
0.00334787
2.09404e-05
0.00334837
1.9442e-05
0.00334862
1.79906e-05
0.00334867
1.6602e-05
0.00334856
1.52824e-05
0.0033483
1.40274e-05
0.00334794
1.28245e-05
0.00334749
1.1655e-05
0.00334699
1.04975e-05
0.00334645
9.32919e-06
0.00334591
8.12655e-06
0.0033454
6.86481e-06
0.00334494
5.51964e-06
0.00334459
4.07113e-06
0.00334438
2.5082e-06
0.00334437
8.3245e-07
0.00334461
-9.39024e-07
0.00334515
-2.76682e-06
0.00334602
-4.58492e-06
0.00334723
-6.29581e-06
0.00334876
-7.79036e-06
0.00335055
-8.94369e-06
0.00335249
-9.64393e-06
0.00335446
-9.81425e-06
0.00335631
-9.42969e-06
0.00335792
-8.53029e-06
0.00335918
-7.21731e-06
0.00336004
-5.63604e-06
0.00336049
-3.94444e-06
0.00336057
-2.28797e-06
0.00336035
-7.67273e-07
0.00335992
5.1791e-07
0.00335933
1.55579e-06
0.00335867
2.35159e-06
0.00335797
2.92252e-06
0.00335727
3.29835e-06
0.00335661
3.51229e-06
0.00335599
3.59705e-06
0.00335543
3.58298e-06
0.00335493
3.49657e-06
0.00335449
3.35941e-06
0.0033541
3.18841e-06
0.00335376
2.99707e-06
0.00335347
2.7957e-06
0.00335321
2.5921e-06
0.00335299
2.39144e-06
0.00335281
2.19711e-06
0.00335264
2.01116e-06
0.0033525
1.835e-06
0.00335238
1.66978e-06
0.00335228
1.51632e-06
0.00335219
1.37492e-06
0.00335211
1.24527e-06
0.00335205
1.12644e-06
0.00335199
1.01752e-06
0.00335194
9.17752e-07
0.00335189
8.26641e-07
0.00335186
7.43794e-07
0.00335182
6.68766e-07
0.00335179
6.00992e-07
0.00335177
5.39778e-07
0.00335175
4.84381e-07
0.00335173
4.34256e-07
0.00335171
3.88823e-07
0.0033517
3.47613e-07
0.00335168
3.10246e-07
0.00335167
2.76372e-07
0.00335166
2.45724e-07
0.00335165
2.1807e-07
0.00335164
1.93156e-07
0.00335164
1.70627e-07
0.00335163
1.50079e-07
0.00335163
1.31214e-07
0.00335162
1.13816e-07
0.00335162
9.75562e-08
0.00335161
8.22479e-08
0.00335161
6.76799e-08
0.00335161
5.37442e-08
0.0033516
4.03211e-08
0.0033516
2.72858e-08
0.0033516
1.43138e-08
0.0033516
1.89947e-09
-1.01091e-08
0.00333516
2.05479e-05
0.00333742
2.5496e-05
0.00333957
2.54342e-05
0.00334149
2.46914e-05
0.00334314
2.37124e-05
0.00334451
2.2593e-05
0.00334558
2.13889e-05
0.00334637
2.01449e-05
0.00334692
1.8897e-05
0.00334724
1.76711e-05
0.00334736
1.64829e-05
0.0033473
1.53381e-05
0.0033471
1.42324e-05
0.00334677
1.31542e-05
0.00334633
1.20869e-05
0.00334582
1.10103e-05
0.00334525
9.90023e-06
0.00334465
8.72868e-06
0.00334405
7.46467e-06
0.00334349
6.07713e-06
0.00334302
4.53824e-06
0.0033427
2.82745e-06
0.0033426
9.3719e-07
0.00334278
-1.12452e-06
0.00334334
-3.31948e-06
0.00334431
-5.56121e-06
0.00334575
-7.728e-06
0.00334762
-9.66098e-06
0.00334985
-1.11791e-05
0.00335232
-1.21118e-05
0.00335484
-1.23336e-05
0.0033572
-1.1795e-05
0.00335922
-1.05475e-05
0.00336075
-8.74323e-06
0.00336171
-6.60291e-06
0.00336213
-4.36352e-06
0.00336208
-2.22927e-06
0.00336164
-3.3136e-07
0.00336096
1.19402e-06
0.00336013
2.3846e-06
0.00335924
3.24572e-06
0.00335834
3.81902e-06
0.00335749
4.15535e-06
0.00335669
4.30458e-06
0.00335598
4.31162e-06
0.00335535
4.21534e-06
0.0033548
4.04825e-06
0.00335432
3.83593e-06
0.00335391
3.59747e-06
0.00335356
3.34654e-06
0.00335326
3.09301e-06
0.00335301
2.84397e-06
0.0033528
2.6042e-06
0.00335262
2.37666e-06
0.00335247
2.16284e-06
0.00335234
1.96341e-06
0.00335223
1.77868e-06
0.00335214
1.60875e-06
0.00335206
1.4534e-06
0.00335199
1.31188e-06
0.00335194
1.18305e-06
0.00335189
1.06575e-06
0.00335185
9.5899e-07
0.00335181
8.6199e-07
0.00335178
7.74126e-07
0.00335176
6.94788e-07
0.00335173
6.23346e-07
0.00335171
5.59089e-07
0.0033517
5.01198e-07
0.00335168
4.48923e-07
0.00335167
4.01581e-07
0.00335166
3.58641e-07
0.00335165
3.19715e-07
0.00335164
2.84559e-07
0.00335163
2.52887e-07
0.00335163
2.24378e-07
0.00335162
1.98753e-07
0.00335162
1.75604e-07
0.00335161
1.54458e-07
0.00335161
1.3514e-07
0.0033516
1.17235e-07
0.0033516
1.00536e-07
0.0033516
8.49014e-08
0.0033516
7.0144e-08
0.00335159
5.61471e-08
0.00335159
4.27852e-08
0.00335159
2.98695e-08
0.00335159
1.71483e-08
0.00335158
4.99891e-09
-6.71485e-09
0.00333492
1.89565e-05
0.0033369
2.35216e-05
0.0033388
2.35363e-05
0.00334052
2.29661e-05
0.00334203
2.22041e-05
0.0033433
2.13203e-05
0.00334433
2.03573e-05
0.00334513
1.93504e-05
0.0033457
1.83294e-05
0.00334605
1.73164e-05
0.00334621
1.63241e-05
0.00334619
1.53562e-05
0.00334602
1.44086e-05
0.0033457
1.34712e-05
0.00334526
1.25283e-05
0.00334471
1.15586e-05
0.00334407
1.05345e-05
0.00334338
9.42296e-06
0.00334266
8.18647e-06
0.00334195
6.78497e-06
0.00334131
5.17782e-06
0.00334081
3.32798e-06
0.00334054
1.21085e-06
0.00334059
-1.18228e-06
0.0033411
-3.82691e-06
0.00334216
-6.61635e-06
0.00334383
-9.3966e-06
0.00334611
-1.19461e-05
0.00334893
-1.39976e-05
0.00335211
-1.52876e-05
0.00335538
-1.56072e-05
0.00335845
-1.4861e-05
0.00336101
-1.31145e-05
0.00336287
-1.0602e-05
0.00336394
-7.66958e-06
0.00336425
-4.67682e-06
0.00336394
-1.91381e-06
0.00336318
4.19486e-07
0.00336216
2.21876e-06
0.003361
3.54254e-06
0.00335982
4.42876e-06
0.00335868
4.95442e-06
0.00335764
5.20051e-06
0.0033567
5.23889e-06
0.00335589
5.1288e-06
0.00335518
4.91847e-06
0.00335459
4.64593e-06
0.00335408
4.33968e-06
0.00335366
4.01965e-06
0.00335331
3.69888e-06
0.00335301
3.38599e-06
0.00335277
3.08674e-06
0.00335257
2.80484e-06
0.00335241
2.54233e-06
0.00335227
2.29982e-06
0.00335216
2.07696e-06
0.00335206
1.87303e-06
0.00335198
1.68716e-06
0.00335192
1.51845e-06
0.00335186
1.3658e-06
0.00335182
1.22781e-06
0.00335178
1.10305e-06
0.00335175
9.90189e-07
0.00335172
8.8814e-07
0.0033517
7.96066e-07
0.00335168
7.1319e-07
0.00335167
6.38829e-07
0.00335166
5.72184e-07
0.00335164
5.12316e-07
0.00335163
4.58373e-07
0.00335163
4.09584e-07
0.00335162
3.65421e-07
0.00335161
3.25481e-07
0.00335161
2.89487e-07
0.0033516
2.57142e-07
0.0033516
2.28133e-07
0.0033516
2.02007e-07
0.00335159
1.7843e-07
0.00335159
1.56993e-07
0.00335159
1.37415e-07
0.00335159
1.19241e-07
0.00335159
1.0235e-07
0.00335158
8.662e-08
0.00335158
7.18819e-08
0.00335158
5.79833e-08
0.00335158
4.48065e-08
0.00335158
3.21531e-08
0.00335157
1.9813e-08
0.00335157
8.03725e-09
-3.2838e-09
0.00333474
1.75472e-05
0.0033365
2.17643e-05
0.0033382
2.18382e-05
0.00333976
2.14044e-05
0.00334115
2.08156e-05
0.00334234
2.01257e-05
0.00334333
1.93676e-05
0.00334411
1.857e-05
0.00334469
1.77564e-05
0.00334506
1.69438e-05
0.00334524
1.61418e-05
0.00334524
1.53529e-05
0.00334508
1.45736e-05
0.00334476
1.37943e-05
0.00334429