/*--------------------------------*- C++ -*----------------------------------*\
| =========                 |                                                 |
| \\      /  F ield         | OpenFOAM: The Open Source CFD Toolbox           |
|  \\    /   O peration     | Version:  v1806                                 |
|   \\  /    A nd           | Web:      www.OpenFOAM.com                      |
|    \\/     M anipulation  |                                                 |
\*---------------------------------------------------------------------------*/
FoamFile
{
    version     2.0;
    format      ascii;
    class       volVectorField;
    location    "0.01";
    object      U;
}
// * * * * * * * * * * * * * * * * * * * * * * * * * * * * * * * * * * * * * //

dimensions      [0 1 -1 0 0 0 0];


internalField   nonuniform List<vector> 
5400
(
(0.724633 0.0390813 0)
(0.96445 0.0234573 0)
(0.902337 0.0109747 0)
(0.873377 0.00534292 0)
(0.866481 0.00299166 0)
(0.862349 0.00188597 0)
(0.859292 0.00128154 0)
(0.857103 0.000928723 0)
(0.855478 0.000706688 0)
(0.854224 0.000555959 0)
(0.853227 0.000448209 0)
(0.852421 0.000364886 0)
(0.851752 0.000302646 0)
(0.851194 0.000253023 0)
(0.850729 0.000212106 -4.38093e-36)
(0.850334 0.000180401 4.38093e-36)
(0.85001 0.000148938 0)
(0.849735 0.000123405 0)
(0.849506 0.000102596 0)
(0.849331 7.84591e-05 0)
(0.849186 6.00778e-05 0)
(0.84908 4.52084e-05 0)
(0.849018 2.47412e-05 0)
(0.848976 8.68915e-06 0)
(0.848963 -5.1087e-07 0)
(0.848989 -1.35744e-05 0)
(0.849029 -2.85512e-05 0)
(0.84908 -3.46989e-05 0)
(0.849158 -3.7022e-05 0)
(0.84925 -4.39401e-05 0)
(0.849338 -5.01294e-05 0)
(0.849427 -4.86926e-05 0)
(0.849525 -4.32237e-05 0)
(0.84962 -4.07146e-05 0)
(0.849696 -3.95906e-05 0)
(0.84976 -3.37664e-05 0)
(0.84982 -2.44433e-05 0)
(0.84987 -1.65545e-05 0)
(0.849899 -1.14322e-05 0)
(0.84991 -6.2166e-06 0)
(0.849911 7.97721e-07 0)
(0.849906 8.32069e-06 0)
(0.84989 1.37292e-05 0)
(0.849859 1.66366e-05 0)
(0.849818 1.87713e-05 0)
(0.849775 2.15318e-05 0)
(0.849731 2.49319e-05 0)
(0.849684 2.69973e-05 0)
(0.849631 2.69733e-05 0)
(0.849575 2.56844e-05 0)
(0.849521 2.48405e-05 0)
(0.84947 2.50268e-05 0)
(0.849422 2.54885e-05 0)
(0.849375 2.48084e-05 0)
(0.849327 2.28659e-05 0)
(0.84928 2.064e-05 0)
(0.849237 1.90618e-05 0)
(0.849199 1.81266e-05 0)
(0.849166 1.73886e-05 0)
(0.849134 1.65887e-05 0)
(0.849103 1.53248e-05 0)
(0.849073 1.36691e-05 0)
(0.849044 1.1951e-05 0)
(0.84902 1.06273e-05 0)
(0.848999 9.82751e-06 0)
(0.84898 9.40218e-06 0)
(0.848963 9.10949e-06 0)
(0.848947 8.40478e-06 0)
(0.848932 7.32007e-06 0)
(0.848917 6.17274e-06 0)
(0.848904 5.25762e-06 0)
(0.848893 4.67944e-06 0)
(0.848883 4.33471e-06 0)
(0.848876 4.10659e-06 0)
(0.848868 3.90897e-06 0)
(0.848862 3.62749e-06 0)
(0.848855 3.17641e-06 0)
(0.848849 2.60537e-06 0)
(0.848843 2.02847e-06 0)
(0.848838 1.60149e-06 0)
(0.848835 1.3765e-06 0)
(0.848832 1.30576e-06 0)
(0.84883 1.31921e-06 0)
(0.848828 1.38576e-06 0)
(0.848826 1.39706e-06 0)
(0.848824 1.46768e-06 0)
(0.848823 1.98778e-06 0)
(0.848817 3.12677e-06 0)
(0.848833 1.34184e-05 0)
(0.848761 1.29787e-05 0)
(0.784954 0.0595072 0)
(1.07749 0.0409481 0)
(1.03803 0.022382 0)
(1.0173 0.0126686 0)
(1.01403 0.00785682 0)
(1.01121 0.00526296 0)
(1.00859 0.00372302 0)
(1.00656 0.00275743 0)
(1.00498 0.00212266 0)
(1.00371 0.00168101 0)
(1.00269 0.00136167 0)
(1.00185 0.00111662 0)
(1.00115 0.000927998 0)
(1.00056 0.000779837 0)
(1.00006 0.0006532 0)
(0.999636 0.000552129 0)
(0.999287 0.000462663 0)
(0.998994 0.00038025 0)
(0.998742 0.000314 0)
(0.998553 0.000249159 0)
(0.998401 0.000184492 0)
(0.99828 0.000132738 0)
(0.99821 8.50866e-05 0)
(0.998172 3.45473e-05 0)
(0.998157 -9.64925e-06 0)
(0.998177 -4.54923e-05 0)
(0.998225 -7.66528e-05 0)
(0.998289 -0.00010385 0)
(0.99837 -0.000125693 0)
(0.998465 -0.000140276 0)
(0.998564 -0.000146388 0)
(0.998669 -0.000145427 0)
(0.998775 -0.000140716 0)
(0.998873 -0.000132418 0)
(0.998956 -0.000118043 0)
(0.99903 -9.78712e-05 0)
(0.999097 -7.63254e-05 0)
(0.999147 -5.60999e-05 0)
(0.999175 -3.62429e-05 0)
(0.999187 -1.49106e-05 0)
(0.99919 6.57247e-06 0)
(0.999183 2.52295e-05 0)
(0.999162 3.89308e-05 0)
(0.999125 4.97854e-05 0)
(0.99908 6.01514e-05 0)
(0.999034 7.01587e-05 0)
(0.998987 7.76662e-05 0)
(0.998934 8.06573e-05 0)
(0.998874 8.0673e-05 0)
(0.998811 8.00302e-05 0)
(0.998753 7.99945e-05 0)
(0.9987 7.97207e-05 0)
(0.998649 7.80629e-05 0)
(0.998597 7.43569e-05 0)
(0.998543 6.94785e-05 0)
(0.998492 6.46639e-05 0)
(0.998446 6.0639e-05 0)
(0.998406 5.73534e-05 0)
(0.998371 5.42001e-05 0)
(0.998337 5.05299e-05 0)
(0.998303 4.61729e-05 0)
(0.99827 4.1578e-05 0)
(0.998239 3.75455e-05 0)
(0.998212 3.44657e-05 0)
(0.99819 3.20904e-05 0)
(0.998171 2.98117e-05 0)
(0.998154 2.73183e-05 0)
(0.998137 2.44144e-05 0)
(0.998119 2.15451e-05 0)
(0.998103 1.90483e-05 0)
(0.998088 1.70333e-05 0)
(0.998076 1.54738e-05 0)
(0.998067 1.42058e-05 0)
(0.998059 1.30708e-05 0)
(0.998052 1.19048e-05 0)
(0.998045 1.06117e-05 0)
(0.998038 9.17308e-06 0)
(0.998031 7.74972e-06 0)
(0.998024 6.53804e-06 0)
(0.998019 5.66297e-06 0)
(0.998015 5.08457e-06 0)
(0.998012 4.66172e-06 0)
(0.99801 4.25245e-06 0)
(0.998009 3.81384e-06 0)
(0.998007 3.35907e-06 0)
(0.998005 3.16523e-06 0)
(0.998006 3.72669e-06 0)
(0.998009 4.90922e-06 0)
(0.997997 1.68807e-05 0)
(0.998012 1.52169e-05 0)
(0.781389 0.034448 0)
(1.07007 0.0315707 0)
(1.03497 0.0221051 0)
(1.01823 0.0151477 0)
(1.01747 0.0105911 0)
(1.01612 0.00763915 0)
(1.01435 0.00568425 0)
(1.01283 0.00434912 0)
(1.01155 0.00341618 0)
(1.01048 0.00273897 0)
(1.00958 0.00223712 0)
(1.00882 0.00185323 0)
(1.00818 0.00154666 0)
(1.00763 0.0013051 0)
(1.00716 0.0010991 0)
(1.00676 0.00092423 0)
(1.00642 0.000782759 0)
(1.00614 0.000648302 0)
(1.0059 0.000523481 0)
(1.00571 0.000419326 0)
(1.00556 0.000320888 0)
(1.00546 0.000224016 0)
(1.00539 0.000136523 0)
(1.00535 5.67465e-05 0)
(1.00534 -1.59894e-05 0)
(1.00538 -7.9912e-05 0)
(1.00543 -0.000135686 0)
(1.00549 -0.00018435 0)
(1.00558 -0.000220042 0)
(1.0057 -0.000241243 0)
(1.00581 -0.000252056 0)
(1.00591 -0.000255232 0)
(1.00602 -0.00024819 0)
(1.00613 -0.000227941 0)
(1.00623 -0.000198713 0)
(1.0063 -0.00016715 0)
(1.00636 -0.0001341 0)
(1.00642 -9.79868e-05 0)
(1.00645 -5.8552e-05 0)
(1.00646 -1.99834e-05 0)
(1.00646 1.39889e-05 0)
(1.00645 4.18655e-05 0)
(1.00642 6.5968e-05 0)
(1.00638 8.85621e-05 0)
(1.00634 0.000108547 0)
(1.00629 0.000123536 0)
(1.00623 0.000132021 0)
(1.00618 0.000136081 0)
(1.00612 0.000138139 0)
(1.00605 0.000139626 0)
(1.006 0.000139775 0)
(1.00594 0.000137435 0)
(1.00589 0.000132269 0)
(1.00583 0.000125214 0)
(1.00578 0.000117838 0)
(1.00573 0.000110966 0)
(1.00568 0.000104802 0)
(1.00564 9.87113e-05 0)
(1.00561 9.22213e-05 0)
(1.00557 8.4979e-05 0)
(1.00554 7.74678e-05 0)
(1.00551 7.0528e-05 0)
(1.00548 6.46441e-05 0)
(1.00545 5.95956e-05 0)
(1.00543 5.48994e-05 0)
(1.00541 5.01897e-05 0)
(1.00539 4.52859e-05 0)
(1.00537 4.05995e-05 0)
(1.00536 3.63838e-05 0)
(1.00534 3.26698e-05 0)
(1.00533 2.94723e-05 0)
(1.00531 2.6729e-05 0)
(1.00531 2.4335e-05 0)
(1.0053 2.2087e-05 0)
(1.00529 1.98089e-05 0)
(1.00528 1.748e-05 0)
(1.00528 1.52194e-05 0)
(1.00527 1.31901e-05 0)
(1.00526 1.15163e-05 0)
(1.00526 1.01467e-05 0)
(1.00525 8.99227e-06 0)
(1.00525 7.94461e-06 0)
(1.00525 6.92601e-06 0)
(1.00525 5.86261e-06 0)
(1.00525 4.88083e-06 0)
(1.00525 4.13588e-06 0)
(1.00525 3.76736e-06 0)
(1.00525 3.5153e-06 0)
(1.00523 5.23782e-06 0)
(1.00526 2.34843e-06 0)
(0.778546 0.0246301 0)
(1.06315 0.0258939 0)
(1.02851 0.0205625 0)
(1.0134 0.0156123 0)
(1.01413 0.0117992 0)
(1.01388 0.00901603 0)
(1.01286 0.00700415 0)
(1.01184 0.00553211 0)
(1.0109 0.00444513 0)
(1.01006 0.00362503 0)
(1.00932 0.00299517 0)
(1.00867 0.00250762 0)
(1.00811 0.00210691 0)
(1.00762 0.00178166 0)
(1.00719 0.00151846 5.62522e-34)
(1.00683 0.00128277 -5.62522e-34)
(1.00651 0.00107611 0)
(1.00624 0.000899253 0)
(1.00602 0.000735289 0)
(1.00585 0.000582301 0)
(1.00571 0.000441943 0)
(1.00559 0.000308825 0)
(1.00554 0.000184791 0)
(1.00552 7.32167e-05 0)
(1.00552 -3.03196e-05 0)
(1.00555 -0.000125919 0)
(1.00562 -0.000208471 0)
(1.0057 -0.000271816 0)
(1.00581 -0.00031933 0)
(1.00593 -0.000355078 0)
(1.00605 -0.000375812 0)
(1.00617 -0.000376315 0)
(1.0063 -0.000357861 0)
(1.00642 -0.000327643 0)
(1.00651 -0.000290675 0)
(1.00659 -0.000245953 0)
(1.00666 -0.000192767 0)
(1.00672 -0.000134957 0)
(1.00675 -7.81006e-05 0)
(1.00676 -2.60177e-05 0)
(1.00675 2.06128e-05 0)
(1.00673 6.28137e-05 0)
(1.00671 0.000101489 0)
(1.00667 0.000134645 0)
(1.00661 0.000160269 0)
(1.00656 0.000177795 0)
(1.0065 0.000188956 0)
(1.00644 0.000196373 0)
(1.00637 0.00020075 0)
(1.00631 0.000202018 0)
(1.00625 0.000199854 0)
(1.00619 0.000194568 0)
(1.00613 0.000186707 0)
(1.00608 0.00017731 0)
(1.00603 0.000167508 0)
(1.00598 0.00015812 0)
(1.00593 0.000148913 0)
(1.00589 0.000139395 0)
(1.00585 0.000129305 0)
(1.00582 0.000118927 0)
(1.00578 0.000108885 0)
(1.00575 9.97005e-05 0)
(1.00572 9.13158e-05 0)
(1.0057 8.35756e-05 0)
(1.00568 7.63463e-05 0)
(1.00566 6.95859e-05 0)
(1.00564 6.31918e-05 0)
(1.00562 5.71723e-05 0)
(1.00561 5.14252e-05 0)
(1.00559 4.61021e-05 0)
(1.00558 4.14052e-05 0)
(1.00557 3.73575e-05 0)
(1.00556 3.38028e-05 0)
(1.00555 3.05129e-05 0)
(1.00554 2.73365e-05 0)
(1.00554 2.42508e-05 0)
(1.00553 2.13484e-05 0)
(1.00552 1.87066e-05 0)
(1.00552 1.63352e-05 0)
(1.00551 1.42236e-05 0)
(1.00551 1.23534e-05 0)
(1.00551 1.06934e-05 0)
(1.0055 9.20097e-06 0)
(1.0055 7.82043e-06 0)
(1.0055 6.48621e-06 0)
(1.0055 5.16179e-06 0)
(1.0055 3.88332e-06 0)
(1.00551 2.52793e-06 0)
(1.00549 1.55832e-06 0)
(1.00551 -1.66202e-06 0)
(0.777181 0.0189037 0)
(1.0594 0.0213906 0)
(1.02429 0.018365 0)
(1.00968 0.0149799 0)
(1.01114 0.0120256 0)
(1.01159 0.00963611 0)
(1.01114 0.00777091 0)
(1.01053 0.00632112 0)
(1.00991 0.00519638 0)
(1.0093 0.00431952 0)
(1.00873 0.00361418 0)
(1.0082 0.00305412 0)
(1.00772 0.00260134 0)
(1.0073 0.00221328 0)
(1.00692 0.00188667 0)
(1.00658 0.00160816 0)
(1.0063 0.00135798 0)
(1.00606 0.00113357 0)
(1.00585 0.000928788 0)
(1.00568 0.000734298 0)
(1.00555 0.000552784 0)
(1.00547 0.000386942 0)
(1.00542 0.000229755 0)
(1.00539 7.74117e-05 0)
(1.0054 -6.27172e-05 0)
(1.00546 -0.000183632 0)
(1.00555 -0.000286253 0)
(1.00564 -0.00037391 0)
(1.00576 -0.00044458 0)
(1.0059 -0.000490603 0)
(1.00605 -0.000509781 0)
(1.00619 -0.000505486 0)
(1.00633 -0.000483186 0)
(1.00646 -0.000445724 0)
(1.00657 -0.000392656 0)
(1.00666 -0.000325466 0)
(1.00674 -0.000249971 0)
(1.00679 -0.000172662 0)
(1.00682 -9.87121e-05 0)
(1.00682 -2.92668e-05 0)
(1.00681 3.4797e-05 0)
(1.00679 9.33065e-05 0)
(1.00676 0.000144056 0)
(1.00671 0.000184932 0)
(1.00664 0.000215726 0)
(1.00658 0.000237642 0)
(1.00652 0.000252659 0)
(1.00645 0.000261923 0)
(1.00638 0.000266452 0)
(1.00632 0.0002664 0)
(1.00625 0.000261981 0)
(1.00619 0.000253659 0)
(1.00613 0.000242676 0)
(1.00608 0.000230525 0)
(1.00602 0.000218169 0)
(1.00597 0.000205755 0)
(1.00593 0.000192959 0)
(1.00589 0.000179759 0)
(1.00585 0.000166209 0)
(1.00581 0.000152775 0)
(1.00578 0.000140007 0)
(1.00575 0.000128142 0)
(1.00572 0.000117241 0)
(1.0057 0.000107279 0)
(1.00568 9.80654e-05 0)
(1.00566 8.93056e-05 0)
(1.00564 8.09045e-05 0)
(1.00562 7.28996e-05 0)
(1.00561 6.5483e-05 0)
(1.00559 5.8862e-05 0)
(1.00558 5.30449e-05 0)
(1.00557 4.78915e-05 0)
(1.00556 4.31965e-05 0)
(1.00555 3.88138e-05 0)
(1.00555 3.46542e-05 0)
(1.00554 3.07332e-05 0)
(1.00553 2.71265e-05 0)
(1.00553 2.38458e-05 0)
(1.00552 2.08969e-05 0)
(1.00552 1.82661e-05 0)
(1.00551 1.59006e-05 0)
(1.00551 1.37289e-05 0)
(1.00551 1.16733e-05 0)
(1.00551 9.73123e-06 0)
(1.00551 7.8196e-06 0)
(1.00551 5.84696e-06 0)
(1.00551 3.80784e-06 0)
(1.00551 1.55584e-06 0)
(1.00549 -7.5809e-07 0)
(1.00551 -4.14538e-06 0)
(0.776499 0.0152587 0)
(1.05731 0.0179769 0)
(1.02159 0.0162203 0)
(1.00703 0.0139189 0)
(1.00879 0.0117021 0)
(1.00963 0.00975366 0)
(1.00955 0.00812922 0)
(1.00927 0.00679678 0)
(1.00891 0.00570188 0)
(1.00849 0.00482252 0)
(1.00806 0.00410561 0)
(1.00767 0.00350446 0)
(1.00728 0.00300669 0)
(1.00691 0.00258498 0)
(1.00659 0.00221834 0)
(1.0063 0.0019004 0)
(1.00605 0.00161499 0)
(1.00582 0.00134815 0)
(1.00562 0.00110156 0)
(1.00548 0.000876492 0)
(1.00537 0.00066332 0)
(1.00528 0.000453989 0)
(1.00524 0.000252171 0)
(1.00523 6.65758e-05 0)
(1.00526 -0.000100558 0)
(1.00534 -0.000253406 0)
(1.00543 -0.000390253 0)
(1.00555 -0.000504902 0)
(1.0057 -0.000589446 0)
(1.00587 -0.000642076 0)
(1.00604 -0.000664773 0)
(1.0062 -0.000660917 0)
(1.00637 -0.000631643 0)
(1.00652 -0.000577323 0)
(1.00664 -0.000501006 0)
(1.00674 -0.000409695 0)
(1.00682 -0.000311378 0)
(1.00688 -0.000212262 0)
(1.0069 -0.000116005 0)
(1.0069 -2.50347e-05 0)
(1.00688 5.85414e-05 0)
(1.00685 0.000132292 0)
(1.00681 0.000193884 0)
(1.00674 0.00024265 0)
(1.00667 0.000279214 0)
(1.0066 0.000305347 0)
(1.00653 0.000322922 0)
(1.00646 0.000333209 0)
(1.00639 0.000336859 0)
(1.00631 0.000334342 0)
(1.00624 0.000326547 0)
(1.00618 0.000314807 0)
(1.00612 0.000300709 0)
(1.00606 0.000285493 0)
(1.00601 0.000269734 0)
(1.00596 0.000253351 0)
(1.00591 0.000236577 0)
(1.00587 0.000219569 0)
(1.00583 0.000202607 0)
(1.0058 0.00018616 0)
(1.00577 0.000170555 0)
(1.00574 0.000155994 0)
(1.00571 0.000142621 0)
(1.00569 0.000130331 0)
(1.00567 0.000118867 0)
(1.00565 0.000108029 0)
(1.00563 9.77314e-05 0)
(1.00562 8.80687e-05 0)
(1.0056 7.92147e-05 0)
(1.00559 7.12736e-05 0)
(1.00557 6.42161e-05 0)
(1.00556 5.78697e-05 0)
(1.00556 5.20611e-05 0)
(1.00555 4.6664e-05 0)
(1.00554 4.16329e-05 0)
(1.00554 3.6964e-05 0)
(1.00553 3.26746e-05 0)
(1.00552 2.87497e-05 0)
(1.00552 2.52086e-05 0)
(1.00551 2.20313e-05 0)
(1.00551 1.91632e-05 0)
(1.00551 1.65395e-05 0)
(1.00551 1.40175e-05 0)
(1.00551 1.15227e-05 0)
(1.0055 9.04865e-06 0)
(1.0055 6.52394e-06 0)
(1.0055 3.89183e-06 0)
(1.00551 1.0065e-06 0)
(1.00549 -1.95048e-06 0)
(1.00551 -5.41685e-06 0)
(0.77613 0.0127779 0)
(1.05605 0.0154013 0)
(1.01982 0.0143546 0)
(1.00513 0.012766 0)
(1.00698 0.0111213 0)
(1.00802 0.00957363 0)
(1.00818 0.00819142 0)
(1.00811 0.007014 0)
(1.00794 0.00601498 0)
(1.0077 0.00516854 0)
(1.00741 0.00446039 0)
(1.0071 0.00385594 0)
(1.0068 0.0033382 0)
(1.00651 0.00289834 0)
(1.00624 0.00251159 1.10976e-33)
(1.00598 0.00215825 -1.10976e-33)
(1.00575 0.00183582 0)
(1.00555 0.00154384 0)
(1.00538 0.0012725 0)
(1.00524 0.00100967 0)
(1.00513 0.000751792 0)
(1.00505 0.000503963 0)
(1.00503 0.000270695 0)
(1.00504 5.06803e-05 0)
(1.00508 -0.000157897 0)
(1.00517 -0.000350816 0)
(1.0053 -0.000519998 0)
(1.00544 -0.000657395 0)
(1.00563 -0.000758891 0)
(1.00583 -0.000824357 0)
(1.00603 -0.000853636 0)
(1.00622 -0.000846121 0)
(1.00642 -0.00080195 0)
(1.00659 -0.000724719 0)
(1.00674 -0.000622075 0)
(1.00685 -0.000503476 0)
(1.00693 -0.000377407 0)
(1.00699 -0.000250194 0)
(1.00701 -0.000126542 0)
(1.007 -1.11286e-05 0)
(1.00697 9.28249e-05 0)
(1.00692 0.000181913 0)
(1.00687 0.000254623 0)
(1.00679 0.000311203 0)
(1.00671 0.000353295 0)
(1.00662 0.000382993 0)
(1.00654 0.00040197 0)
(1.00647 0.000411434 0)
(1.00639 0.000412422 0)
(1.00631 0.000406271 0)
(1.00623 0.000394582 0)
(1.00616 0.000379045 0)
(1.0061 0.000361101 0)
(1.00604 0.000341772 0)
(1.00599 0.000321564 0)
(1.00594 0.000300824 0)
(1.00589 0.000279786 0)
(1.00585 0.000258841 0)
(1.00582 0.000238396 0)
(1.00578 0.000218781 0)
(1.00575 0.000200304 0)
(1.00572 0.00018313 0)
(1.0057 0.000167262 0)
(1.00567 0.000152506 0)
(1.00565 0.000138717 0)
(1.00564 0.000125771 0)
(1.00562 0.000113681 0)
(1.00561 0.000102495 0)
(1.00559 9.22685e-05 0)
(1.00558 8.30593e-05 0)
(1.00557 7.47648e-05 0)
(1.00556 6.72465e-05 0)
(1.00555 6.03718e-05 0)
(1.00554 5.40478e-05 0)
(1.00554 4.82208e-05 0)
(1.00553 4.28535e-05 0)
(1.00552 3.79082e-05 0)
(1.00552 3.33933e-05 0)
(1.00551 2.92898e-05 0)
(1.00551 2.5581e-05 0)
(1.00551 2.22041e-05 0)
(1.00551 1.90828e-05 0)
(1.0055 1.61168e-05 0)
(1.0055 1.3193e-05 0)
(1.0055 1.02393e-05 0)
(1.0055 7.24957e-06 0)
(1.0055 4.17647e-06 0)
(1.00551 8.74988e-07 0)
(1.00548 -2.45426e-06 0)
(1.00551 -5.99454e-06 0)
(0.775913 0.0109917 0)
(1.05525 0.0134148 0)
(1.01861 0.0127894 0)
(1.00376 0.0116658 0)
(1.0056 0.0104283 0)
(1.0067 0.00921281 0)
(1.00699 0.00807549 0)
(1.00709 0.00705634 0)
(1.00706 0.0061661 0)
(1.00693 0.00538185 0)
(1.00675 0.00470055 0)
(1.00655 0.00411852 0)
(1.00632 0.00361187 0)
(1.00608 0.0031585 0)
(1.00585 0.00274925 0)
(1.00563 0.00238066 0)
(1.00543 0.00204503 0)
(1.00525 0.00172924 0)
(1.00509 0.00142271 0)
(1.00496 0.00112313 0)
(1.00486 0.000833041 0)
(1.0048 0.000553182 0)
(1.00479 0.000281084 0)
(1.0048 1.57985e-05 0)
(1.00486 -0.000237948 0)
(1.00498 -0.000470865 0)
(1.00513 -0.000674088 0)
(1.00531 -0.000840866 0)
(1.00553 -0.000967088 0)
(1.00578 -0.00104861 0)
(1.00602 -0.00108184 0)
(1.00625 -0.00106491 0)
(1.00649 -0.00100046 0)
(1.0067 -0.000895826 0)
(1.00686 -0.000761379 0)
(1.00699 -0.000608118 0)
(1.00708 -0.000445926 0)
(1.00713 -0.000283199 0)
(1.00714 -0.000127031 0)
(1.00712 1.57388e-05 0)
(1.00707 0.000141222 0)
(1.00701 0.000246216 0)
(1.00693 0.000330119 0)
(1.00684 0.000394292 0)
(1.00675 0.000441064 0)
(1.00665 0.000472675 0)
(1.00656 0.000490964 0)
(1.00647 0.000497499 0)
(1.00638 0.000494156 0)
(1.0063 0.000483143 0)
(1.00622 0.000466604 0)
(1.00614 0.000446329 0)
(1.00608 0.000423532 0)
(1.00602 0.000399047 0)
(1.00597 0.000373532 0)
(1.00592 0.000347778 0)
(1.00587 0.000322321 0)
(1.00583 0.000297464 0)
(1.00579 0.000273503 0)
(1.00576 0.000250694 0)
(1.00573 0.000229235 0)
(1.0057 0.000209246 0)
(1.00568 0.000190702 0)
(1.00566 0.000173496 0)
(1.00564 0.000157453 0)
(1.00562 0.000142503 0)
(1.00561 0.000128649 0)
(1.00559 0.000115933 0)
(1.00558 0.000104436 0)
(1.00557 9.40186e-05 0)
(1.00556 8.4552e-05 0)
(1.00555 7.59401e-05 0)
(1.00554 6.80854e-05 0)
(1.00554 6.09019e-05 0)
(1.00553 5.43169e-05 0)
(1.00553 4.82694e-05 0)
(1.00552 4.27232e-05 0)
(1.00551 3.76594e-05 0)
(1.00551 3.3059e-05 0)
(1.00551 2.88782e-05 0)
(1.0055 2.5044e-05 0)
(1.0055 2.14444e-05 0)
(1.0055 1.80533e-05 0)
(1.0055 1.47503e-05 0)
(1.0055 1.14257e-05 0)
(1.0055 8.06322e-06 0)
(1.0055 4.65247e-06 0)
(1.0055 1.06584e-06 0)
(1.00547 -2.47743e-06 0)
(1.00551 -6.08624e-06 0)
(0.775769 0.00964295 0)
(1.05473 0.0118596 0)
(1.01778 0.0114738 0)
(1.00275 0.0106677 0)
(1.00452 0.009732 0)
(1.00567 0.00877374 0)
(1.00602 0.00785205 0)
(1.0062 0.0069824 0)
(1.00626 0.00619008 0)
(1.00623 0.00548759 0)
(1.00614 0.00486623 0)
(1.00601 0.00431191 0)
(1.00584 0.00381293 0)
(1.00565 0.00336307 0)
(1.00546 0.0029571 0)
(1.00527 0.00258471 0)
(1.0051 0.0022328 0)
(1.00493 0.00189204 0)
(1.00477 0.00155929 0)
(1.00465 0.00123401 0)
(1.00456 0.000913939 0)
(1.0045 0.000595299 0)
(1.00449 0.000276879 0)
(1.00452 -3.69593e-05 0)
(1.0046 -0.000337558 0)
(1.00474 -0.000615382 0)
(1.00493 -0.000861521 0)
(1.00515 -0.00106723 0)
(1.00542 -0.00122387 0)
(1.00571 -0.00132274 0)
(1.00601 -0.00135767 0)
(1.0063 -0.00132765 0)
(1.00659 -0.00123775 0)
(1.00683 -0.00109818 0)
(1.00703 -0.00092206 0)
(1.00716 -0.000723122 0)
(1.00726 -0.000514471 0)
(1.00731 -0.000307979 0)
(1.00731 -0.000113832 0)
(1.00726 5.98213e-05 0)
(1.0072 0.000208509 0)
(1.00711 0.000330132 0)
(1.00701 0.000425179 0)
(1.0069 0.00049595 0)
(1.00679 0.000545367 0)
(1.00667 0.000576252 0)
(1.00657 0.000591131 0)
(1.00647 0.000592527 0)
(1.00637 0.000583126 0)
(1.00628 0.000565695 0)
(1.00619 0.000542743 0)
(1.00612 0.000516193 0)
(1.00605 0.000487317 0)
(1.006 0.000456996 0)
(1.00594 0.000425961 0)
(1.00589 0.000394985 0)
(1.00584 0.000364626 0)
(1.0058 0.000335348 0)
(1.00577 0.000307506 0)
(1.00574 0.00028133 0)
(1.00571 0.000256855 0)
(1.00568 0.000234042 0)
(1.00566 0.000212822 0)
(1.00564 0.000193137 0)
(1.00562 0.00017487 0)
(1.00561 0.000157994 0)
(1.00559 0.000142525 0)
(1.00558 0.000128442 0)
(1.00557 0.000115681 0)
(1.00556 0.000104065 0)
(1.00555 9.34895e-05 0)
(1.00554 8.38697e-05 0)
(1.00553 7.51145e-05 0)
(1.00553 6.71301e-05 0)
(1.00552 5.98364e-05 0)
(1.00552 5.31601e-05 0)
(1.00551 4.7058e-05 0)
(1.00551 4.15021e-05 0)
(1.00551 3.64588e-05 0)
(1.0055 3.18754e-05 0)
(1.0055 2.76445e-05 0)
(1.0055 2.36893e-05 0)
(1.0055 1.99142e-05 0)
(1.0055 1.62279e-05 0)
(1.00549 1.25838e-05 0)
(1.00549 8.94305e-06 0)
(1.00549 5.288e-06 0)
(1.0055 1.51427e-06 0)
(1.00547 -2.1502e-06 0)
(1.0055 -5.80824e-06 0)
(0.775677 0.00858666 0)
(1.05435 0.0106048 0)
(1.01717 0.0103683 0)
(1.002 0.00977493 0)
(1.0037 0.0090729 0)
(1.00482 0.00831381 0)
(1.0052 0.00755225 0)
(1.00543 0.00682362 0)
(1.00557 0.00614563 0)
(1.00561 0.00552421 0)
(1.00558 0.0049557 0)
(1.00549 0.00443649 0)
(1.00537 0.00396476 0)
(1.00523 0.00353543 0)
(1.00507 0.00313854 2.71916e-34)
(1.0049 0.0027627 -2.71916e-34)
(1.00474 0.00239955 0)
(1.00458 0.00204482 0)
(1.00443 0.00169531 0)
(1.00432 0.00134619 0)
(1.00422 0.000992164 0)
(1.00416 0.000630612 0)
(1.00415 0.000263928 0)
(1.00419 -0.00010112 0)
(1.00428 -0.000456049 0)
(1.00445 -0.000790149 0)
(1.00468 -0.00109136 0)
(1.00495 -0.00134623 0)
(1.00528 -0.00153985 0)
(1.00564 -0.001659 0)
(1.00601 -0.00169562 0)
(1.00637 -0.00164877 0)
(1.00672 -0.00152553 0)
(1.00701 -0.00133924 0)
(1.00724 -0.001107 0)
(1.00739 -0.000847569 0)
(1.00749 -0.000579501 0)
(1.00753 -0.000319514 0)
(1.00751 -8.14621e-05 0)
(1.00744 0.000127373 0)
(1.00734 0.000301441 0)
(1.00723 0.000440047 0)
(1.0071 0.000545134 0)
(1.00696 0.000620095 0)
(1.00683 0.00066893 0)
(1.00669 0.000695658 0)
(1.00657 0.000704065 0)
(1.00646 0.000697719 0)
(1.00635 0.000680018 0)
(1.00625 0.000654163 0)
(1.00617 0.000622971 0)
(1.00609 0.000588599 0)
(1.00602 0.000552479 0)
(1.00596 0.000515497 0)
(1.00591 0.00047834 0)
(1.00585 0.000441586 0)
(1.00581 0.000405922 0)
(1.00577 0.000371948 0)
(1.00574 0.000340062 0)
(1.00571 0.000310378 0)
(1.00568 0.000282811 0)
(1.00566 0.000257171 0)
(1.00564 0.000233306 0)
(1.00562 0.00021116 0)
(1.0056 0.000190775 0)
(1.00559 0.000172146 0)
(1.00558 0.000155216 0)
(1.00557 0.000139844 0)
(1.00556 0.000125821 0)
(1.00555 0.000113066 0)
(1.00554 0.000101471 0)
(1.00553 9.09325e-05 0)
(1.00553 8.13577e-05 0)
(1.00552 7.2649e-05 0)
(1.00552 6.47196e-05 0)
(1.00551 5.74883e-05 0)
(1.00551 5.0884e-05 0)
(1.0055 4.48884e-05 0)
(1.0055 3.94482e-05 0)
(1.0055 3.44993e-05 0)
(1.0055 2.99431e-05 0)
(1.00549 2.56656e-05 0)
(1.00549 2.15578e-05 0)
(1.00549 1.75763e-05 0)
(1.00549 1.36847e-05 0)
(1.00549 9.8518e-06 0)
(1.00549 6.05427e-06 0)
(1.0055 2.17559e-06 0)
(1.00546 -1.56451e-06 0)
(1.0055 -5.24476e-06 0)
(0.775601 0.00773542 0)
(1.05409 0.00956912 0)
(1.01673 0.00944026 0)
(1.00143 0.00899458 0)
(1.00306 0.00844682 0)
(1.00414 0.00784623 0)
(1.00453 0.00722998 0)
(1.00479 0.00662581 0)
(1.00496 0.00604648 0)
(1.00504 0.00549909 0)
(1.00506 0.00498884 0)
(1.00502 0.0045178 0)
(1.00494 0.00408331 0)
(1.00482 0.00367798 0)
(1.00469 0.00329299 2.69772e-34)
(1.00453 0.00292136 -2.69772e-34)
(1.00438 0.00255817 0)
(1.00422 0.00219828 0)
(1.00407 0.00183503 0)
(1.00395 0.00146143 0)
(1.00384 0.00107276 0)
(1.00377 0.000668264 0)
(1.00376 0.000251091 0)
(1.0038 -0.000172502 0)
(1.00391 -0.000593533 0)
(1.0041 -0.000998721 0)
(1.00437 -0.00137047 0)
(1.0047 -0.00168797 0)
(1.00511 -0.00192918 0)
(1.00556 -0.00207536 0)
(1.00602 -0.00211499 0)
(1.00647 -0.00204643 0)
(1.0069 -0.00187797 0)
(1.00725 -0.00162736 0)
(1.00752 -0.00131894 0)
(1.00769 -0.000979623 0)
(1.00779 -0.000635712 0)
(1.00781 -0.000309766 0)
(1.00775 -1.93936e-05 0)
(1.00765 0.000228464 0)
(1.00751 0.000429062 0)
(1.00736 0.000583555 0)
(1.00719 0.000695767 0)
(1.00703 0.000770885 0)
(1.00686 0.000814705 0)
(1.00671 0.000833014 0)
(1.00657 0.000831179 0)
(1.00644 0.000813846 0)
(1.00633 0.000785092 0)
(1.00622 0.000748498 0)
(1.00613 0.000707112 0)
(1.00605 0.000663262 0)
(1.00598 0.000618487 0)
(1.00592 0.00057371 0)
(1.00587 0.000529565 0)
(1.00582 0.00048663 0)
(1.00577 0.000445533 0)
(1.00574 0.000406825 0)
(1.00571 0.000370818 0)
(1.00568 0.00033752 0)
(1.00566 0.000306719 0)
(1.00563 0.000278164 0)
(1.00561 0.00025171 0)
(1.0056 0.000227332 0)
(1.00558 0.000205036 0)
(1.00557 0.000184792 0)
(1.00556 0.000166441 0)
(1.00555 0.000149784 0)
(1.00554 0.00013465 0)
(1.00553 0.000120895 0)
(1.00553 0.000108391 0)
(1.00552 9.70329e-05 0)
(1.00552 8.67303e-05 0)
(1.00551 7.73822e-05 0)
(1.00551 6.88888e-05 0)
(1.00551 6.11676e-05 0)
(1.0055 5.41461e-05 0)
(1.0055 4.77767e-05 0)
(1.0055 4.19946e-05 0)
(1.00549 3.671e-05 0)
(1.00549 3.18736e-05 0)
(1.00549 2.73257e-05 0)
(1.00549 2.29789e-05 0)
(1.00549 1.87915e-05 0)
(1.00549 1.47365e-05 0)
(1.00549 1.07842e-05 0)
(1.00549 6.89594e-06 0)
(1.00549 2.96209e-06 0)
(1.00546 -8.03265e-07 0)
(1.0055 -4.46968e-06 0)
(0.775547 0.00703376 0)
(1.0539 0.00871556 0)
(1.0164 0.0086402 0)
(1.00099 0.00830214 0)
(1.00255 0.00787527 0)
(1.00361 0.00740123 0)
(1.00398 0.00690347 0)
(1.00425 0.00640093 0)
(1.00444 0.00590781 0)
(1.00455 0.00543471 0)
(1.00459 0.00498813 0)
(1.00459 0.00456883 0)
(1.00453 0.00417295 0)
(1.00444 0.00379503 0)
(1.00432 0.00342998 -6.68721e-35)
(1.00417 0.00307297 6.68721e-35)
(1.00402 0.00271806 0)
(1.00386 0.0023576 0)
(1.00369 0.00198326 0)
(1.00355 0.00158793 0)
(1.00343 0.00116722 0)
(1.00334 0.000719796 0)
(1.00331 0.000247157 0)
(1.00334 -0.000245759 0)
(1.00346 -0.000748261 0)
(1.00368 -0.00124298 0)
(1.00399 -0.00170545 0)
(1.00439 -0.0021054 0)
(1.00489 -0.00241155 0)
(1.00546 -0.00259668 0)
(1.00604 -0.00264268 0)
(1.00661 -0.0025448 0)
(1.00714 -0.0023133 0)
(1.00757 -0.00197336 0)
(1.00789 -0.00156085 0)
(1.00808 -0.00111553 0)
(1.00816 -0.000674437 0)
(1.00815 -0.000267398 0)
(1.00805 8.53693e-05 0)
(1.00789 0.000375776 0)
(1.0077 0.000602454 0)
(1.0075 0.000769447 0)
(1.00729 0.000883607 0)
(1.00708 0.000952972 0)
(1.00689 0.000985866 0)
(1.00671 0.000990304 0)
(1.00655 0.000973399 0)
(1.00642 0.000941048 0)
(1.00629 0.000897983 0)
(1.00618 0.00084805 0)
(1.00608 0.000794375 0)
(1.006 0.000739327 0)
(1.00593 0.000684526 0)
(1.00587 0.000630938 0)
(1.00582 0.000579155 0)
(1.00577 0.000529665 0)
(1.00573 0.000482951 0)
(1.0057 0.000439398 0)
(1.00567 0.000399175 0)
(1.00565 0.000362174 0)
(1.00563 0.000328126 0)
(1.00561 0.00029677 0)
(1.00559 0.000267924 0)
(1.00557 0.000241496 0)
(1.00556 0.000217443 0)
(1.00555 0.000195657 0)
(1.00554 0.000175971 0)
(1.00554 0.000158181 0)
(1.00553 0.000142065 0)
(1.00552 0.000127438 0)
(1.00551 0.000114154 0)
(1.00551 0.000102093 0)
(1.00551 9.11568e-05 0)
(1.0055 8.12471e-05 0)
(1.0055 7.22669e-05 0)
(1.0055 6.41399e-05 0)
(1.00549 5.68005e-05 0)
(1.00549 5.0159e-05 0)
(1.00549 4.41234e-05 0)
(1.00549 3.85942e-05 0)
(1.00549 3.34752e-05 0)
(1.00549 2.86883e-05 0)
(1.00548 2.41585e-05 0)
(1.00548 1.98341e-05 0)
(1.00548 1.56826e-05 0)
(1.00548 1.16641e-05 0)
(1.00548 7.73725e-06 0)
(1.00549 3.81812e-06 0)
(1.00545 7.81451e-08 0)
(1.0055 -3.54692e-06 0)
(0.77551 0.006439 0)
(1.05376 0.00798402 0)
(1.01614 0.00794596 0)
(1.00066 0.00769041 0)
(1.00216 0.00735895 0)
(1.00317 0.00698196 0)
(1.00353 0.00657764 0)
(1.0038 0.0061622 0)
(1.00399 0.00574955 0)
(1.00413 0.00534886 0)
(1.00419 0.00496412 0)
(1.0042 0.00459541 0)
(1.00416 0.00424065 0)
(1.00408 0.00389697 0)
(1.00397 0.00356059 0)
(1.00382 0.00322588 0)
(1.00366 0.00288512 0)
(1.00349 0.0025293 0)
(1.0033 0.00214958 0)
(1.00313 0.00173831 0)
(1.00298 0.00128936 0)
(1.00285 0.000798422 0)
(1.0028 0.000263998 0)
(1.00281 -0.000310402 0)
(1.00291 -0.000913188 0)
(1.00315 -0.00152166 0)
(1.00351 -0.00210295 0)
(1.00399 -0.00261528 0)
(1.00461 -0.0030136 0)
(1.00533 -0.00325665 0)
(1.00607 -0.00331464 0)
(1.0068 -0.00317663 0)
(1.00747 -0.00285622 0)
(1.008 -0.00239088 0)
(1.00837 -0.00183479 0)
(1.00858 -0.00124708 0)
(1.00864 -0.000680462 0)
(1.00857 -0.000174908 0)
(1.0084 0.000250257 0)
(1.00816 0.00058587 0)
(1.0079 0.000835363 0)
(1.00764 0.00100811 0)
(1.00738 0.00111598 0)
(1.00713 0.00117118 0)
(1.0069 0.0011853 0)
(1.0067 0.00116888 0)
(1.00652 0.00113098 0)
(1.00637 0.00107877 0)
(1.00624 0.00101763 0)
(1.00612 0.000951506 0)
(1.00602 0.000883392 0)
(1.00594 0.000815526 0)
(1.00587 0.00074946 0)
(1.00582 0.000686163 0)
(1.00576 0.000626183 0)
(1.00572 0.000569842 0)
(1.00568 0.00051737 0)
(1.00565 0.000468904 0)
(1.00563 0.000424438 0)
(1.00561 0.000383785 0)
(1.00559 0.000346639 0)
(1.00557 0.000312672 0)
(1.00556 0.000281633 0)
(1.00555 0.000253351 0)
(1.00554 0.000227698 0)
(1.00553 0.000204532 0)
(1.00552 0.000183674 0)
(1.00552 0.000164888 0)
(1.00551 0.000147926 0)
(1.00551 0.000132576 0)
(1.0055 0.000118656 0)
(1.0055 0.000106017 0)
(1.0055 9.45542e-05 0)
(1.00549 8.41806e-05 0)
(1.00549 7.48199e-05 0)
(1.00549 6.63915e-05 0)
(1.00549 5.87994e-05 0)
(1.00549 5.19468e-05 0)
(1.00548 4.57229e-05 0)
(1.00548 4.00148e-05 0)
(1.00548 3.47014e-05 0)
(1.00548 2.97442e-05 0)
(1.00548 2.50869e-05 0)
(1.00548 2.06767e-05 0)
(1.00548 1.64756e-05 0)
(1.00548 1.24452e-05 0)
(1.00548 8.54518e-06 0)
(1.00548 4.69553e-06 0)
(1.00545 1.01613e-06 0)
(1.00549 -2.53872e-06 0)
(0.775482 0.00592456 0)
(1.05364 0.00734821 0)
(1.01595 0.00734131 0)
(1.00039 0.00714633 0)
(1.00184 0.00688664 0)
(1.00282 0.00658605 0)
(1.00316 0.00626026 0)
(1.00342 0.00592263 0)
(1.00363 0.00558346 0)
(1.00377 0.00524914 0)
(1.00384 0.00492272 0)
(1.00386 0.00460519 0)
(1.00383 0.0042961 0)
(1.00376 0.00399324 0)
(1.00365 0.00369217 -1.04998e-33)
(1.00349 0.00338597 1.04998e-33)
(1.00332 0.00306599 0)
(1.00312 0.00272271 0)
(1.0029 0.00234639 0)
(1.00269 0.00192716 0)
(1.00249 0.00145506 0)
(1.00231 0.000921062 0)
(1.0022 0.000319357 0)
(1.00217 -0.000349152 0)
(1.00225 -0.00107424 0)
(1.00249 -0.00182851 0)
(1.00289 -0.0025689 0)
(1.00348 -0.00323826 0)
(1.00425 -0.00377054 0)
(1.00516 -0.00410128 0)
(1.00612 -0.00418103 0)
(1.00707 -0.00398856 0)
(1.00792 -0.00354138 0)
(1.00859 -0.00289692 0)
(1.00903 -0.00213932 0)
(1.00923 -0.00135761 0)
(1.00923 -0.000627426 0)
(1.00908 -1.87475e-06 0)
(1.00881 0.000502866 0)
(1.00847 0.000881438 0)
(1.00812 0.00114504 0)
(1.00778 0.00131162 0)
(1.00745 0.00140057 0)
(1.00715 0.00142981 0)
(1.00689 0.0014149 0)
(1.00666 0.00136911 0)
(1.00646 0.00130327 0)
(1.0063 0.00122571 0)