/*--------------------------------*- C++ -*----------------------------------*\
| =========                 |                                                 |
| \\      /  F ield         | OpenFOAM: The Open Source CFD Toolbox           |
|  \\    /   O peration     | Version:  v1806                                 |
|   \\  /    A nd           | Web:      www.OpenFOAM.com                      |
|    \\/     M anipulation  |                                                 |
\*---------------------------------------------------------------------------*/
FoamFile
{
    version     2.0;
    format      ascii;
    class       vectorField;
    location    "0.04";
    object      currentcloudofpoints;
}
// * * * * * * * * * * * * * * * * * * * * * * * * * * * * * * * * * * * * * //


648
(
(0.225328 0.489226 0.05)
(0.710384 0.522474 0.05)
(0.333864 0.5835 0.05)
(0.611152 0.431886 0.05)
(0.236301 0.471028 0.05)
(0.247165 0.455185 0.05)
(0.25831 0.440985 0.05)
(0.26967 0.428574 0.05)
(0.281365 0.417084 0.05)
(0.29318 0.406341 0.05)
(0.305015 0.395467 0.05)
(0.316558 0.383993 0.05)
(0.328082 0.372073 0.05)
(0.339618 0.359189 0.05)
(0.351043 0.345619 0.05)
(0.362776 0.331781 0.05)
(0.37502 0.317432 0.05)
(0.388129 0.303484 0.05)
(0.40212 0.290076 0.05)
(0.417597 0.276769 0.05)
(0.434127 0.264938 0.05)
(0.451751 0.254617 0.05)
(0.471812 0.245482 0.05)
(0.49375 0.238063 0.05)
(0.518079 0.232497 0.05)
(0.545778 0.229464 0.05)
(0.57637 0.230338 0.05)
(0.608016 0.236484 0.05)
(0.638819 0.248091 0.05)
(0.667857 0.265074 0.05)
(0.693512 0.286574 0.05)
(0.714338 0.311951 0.05)
(0.729728 0.340523 0.05)
(0.739588 0.371033 0.05)
(0.743771 0.40229 0.05)
(0.742508 0.432069 0.05)
(0.737352 0.459047 0.05)
(0.729714 0.482972 0.05)
(0.720588 0.504059 0.05)
(0.699735 0.538786 0.05)
(0.68888 0.55371 0.05)
(0.677917 0.567671 0.05)
(0.666358 0.581169 0.05)
(0.654253 0.594313 0.05)
(0.641691 0.607206 0.05)
(0.629137 0.620002 0.05)
(0.617345 0.632644 0.05)
(0.606878 0.645437 0.05)
(0.59851 0.658266 0.05)
(0.592113 0.671556 0.05)
(0.587415 0.685501 0.05)
(0.582861 0.700359 0.05)
(0.577544 0.716129 0.05)
(0.56971 0.732329 0.05)
(0.558975 0.748545 0.05)
(0.544093 0.764022 0.05)
(0.526117 0.777775 0.05)
(0.502765 0.789643 0.05)
(0.475199 0.798751 0.05)
(0.443372 0.80358 0.05)
(0.408016 0.802763 0.05)
(0.372172 0.795963 0.05)
(0.339414 0.784719 0.05)
(0.310838 0.770543 0.05)
(0.286035 0.754324 0.05)
(0.264076 0.736114 0.05)
(0.244615 0.715587 0.05)
(0.227774 0.69053 0.05)
(0.214674 0.661551 0.05)
(0.205586 0.628809 0.05)
(0.201238 0.595205 0.05)
(0.202139 0.563686 0.05)
(0.20722 0.535556 0.05)
(0.215232 0.510877 0.05)
(0.340086 0.570868 0.05)
(0.347258 0.557419 0.05)
(0.355122 0.542979 0.05)
(0.363573 0.527546 0.05)
(0.372369 0.511132 0.05)
(0.381556 0.493752 0.05)
(0.391259 0.475477 0.05)
(0.402154 0.457014 0.05)
(0.414557 0.439175 0.05)
(0.428494 0.423041 0.05)
(0.443912 0.40924 0.05)
(0.459495 0.39812 0.05)
(0.4752 0.38922 0.05)
(0.490601 0.381889 0.05)
(0.504442 0.375567 0.05)
(0.517394 0.369723 0.05)
(0.529399 0.364106 0.05)
(0.540154 0.35846 0.05)
(0.549427 0.352742 0.05)
(0.557413 0.346967 0.05)
(0.564752 0.341166 0.05)
(0.572296 0.335886 0.05)
(0.580577 0.331373 0.05)
(0.590123 0.328493 0.05)
(0.601249 0.327868 0.05)
(0.613626 0.330611 0.05)
(0.626138 0.336931 0.05)
(0.636864 0.34625 0.05)
(0.644154 0.357663 0.05)
(0.647238 0.369893 0.05)
(0.646097 0.381432 0.05)
(0.641776 0.392027 0.05)
(0.635291 0.40172 0.05)
(0.627641 0.41099 0.05)
(0.619421 0.420876 0.05)
(0.602877 0.444122 0.05)
(0.594462 0.458033 0.05)
(0.586128 0.473984 0.05)
(0.577899 0.491483 0.05)
(0.569688 0.509623 0.05)
(0.560442 0.528926 0.05)
(0.549226 0.54841 0.05)
(0.535233 0.566698 0.05)
(0.518746 0.583596 0.05)
(0.501172 0.599008 0.05)
(0.483685 0.613712 0.05)
(0.467362 0.628564 0.05)
(0.452921 0.642998 0.05)
(0.440167 0.656574 0.05)
(0.43059 0.669009 0.05)
(0.422393 0.68031 0.05)
(0.415678 0.690257 0.05)
(0.41069 0.698452 0.05)
(0.40549 0.704858 0.05)
(0.399061 0.709229 0.05)
(0.391098 0.711164 0.05)
(0.381777 0.710664 0.05)
(0.371078 0.707964 0.05)
(0.359845 0.703516 0.05)
(0.348601 0.697597 0.05)
(0.338016 0.689694 0.05)
(0.3295 0.680432 0.05)
(0.323301 0.670117 0.05)
(0.319491 0.659259 0.05)
(0.318002 0.648619 0.05)
(0.317987 0.638054 0.05)
(0.319171 0.627685 0.05)
(0.321291 0.617281 0.05)
(0.324492 0.606595 0.05)
(0.328656 0.595398 0.05)
(0.686236 0.463191 0.05)
(0.27817 0.567166 0.05)
(0.31701 0.531824 0.05)
(0.63632 0.497651 0.05)
(0.354908 0.474385 0.05)
(0.461649 0.347841 0.05)
(0.521656 0.629059 0.05)
(0.40452 0.401223 0.05)
(0.483371 0.687553 0.05)
(0.59134 0.557154 0.05)
(0.504741 0.312412 0.05)
(0.257642 0.62527 0.05)
(0.490643 0.733839 0.05)
(0.710276 0.377106 0.05)
(0.418862 0.765321 0.05)
(0.305585 0.716604 0.05)
(0.547328 0.276884 0.05)
(0.643088 0.286503 0.05)
(0.33966 0.539112 0.05)
(0.325297 0.562403 0.05)
(0.652176 0.437978 0.05)
(0.671834 0.423992 0.05)
(0.308603 0.587685 0.05)
(0.298606 0.605011 0.05)
(0.378256 0.470761 0.05)
(0.36061 0.502998 0.05)
(0.60718 0.478658 0.05)
(0.625234 0.45634 0.05)
(0.68698 0.390269 0.05)
(0.682509 0.355336 0.05)
(0.56368 0.55553 0.05)
(0.584693 0.519261 0.05)
(0.434184 0.398025 0.05)
(0.406958 0.426874 0.05)
(0.489472 0.628587 0.05)
(0.523627 0.599521 0.05)
(0.538857 0.329627 0.05)
(0.524009 0.34225 0.05)
(0.496867 0.357722 0.05)
(0.471405 0.371319 0.05)
(0.440054 0.732078 0.05)
(0.44318 0.71637 0.05)
(0.444491 0.689647 0.05)
(0.456178 0.665228 0.05)
(0.291127 0.630297 0.05)
(0.291612 0.654291 0.05)
(0.382924 0.737884 0.05)
(0.414466 0.742815 0.05)
(0.309377 0.691035 0.05)
(0.337893 0.715828 0.05)
(0.57297 0.298451 0.05)
(0.555173 0.310811 0.05)
(0.64893 0.314152 0.05)
(0.611555 0.296646 0.05)
(0.703876 0.426448 0.05)
(0.658198 0.477328 0.05)
(0.300381 0.555237 0.05)
(0.337271 0.508928 0.05)
(0.612503 0.518152 0.05)
(0.266329 0.593878 0.05)
(0.379446 0.439271 0.05)
(0.49081 0.331912 0.05)
(0.557178 0.593137 0.05)
(0.484129 0.710663 0.05)
(0.437293 0.37187 0.05)
(0.487287 0.659147 0.05)
(0.687149 0.326697 0.05)
(0.52599 0.29707 0.05)
(0.462874 0.754298 0.05)
(0.359783 0.747881 0.05)
(0.272656 0.670589 0.05)
(0.589105 0.272255 0.05)
(0.715755 0.342734 0.05)
(0.728163 0.410324 0.05)
(0.718303 0.457576 0.05)
(0.694249 0.49974 0.05)
(0.235168 0.55125 0.05)
(0.26117 0.515969 0.05)
(0.628525 0.569885 0.05)
(0.598724 0.601783 0.05)
(0.512807 0.261017 0.05)
(0.568331 0.249179 0.05)
(0.321844 0.460469 0.05)
(0.343336 0.43124 0.05)
(0.535097 0.732833 0.05)
(0.50421 0.763785 0.05)
(0.324839 0.754681 0.05)
(0.265987 0.706331 0.05)
(0.237847 0.658154 0.05)
(0.226415 0.593167 0.05)
(0.453431 0.300623 0.05)
(0.482424 0.276885 0.05)
(0.460838 0.781056 0.05)
(0.383899 0.778956 0.05)
(0.57381 0.626998 0.05)
(0.548402 0.656131 0.05)
(0.406092 0.347024 0.05)
(0.43224 0.319865 0.05)
(0.541593 0.678153 0.05)
(0.543013 0.707567 0.05)
(0.362044 0.405285 0.05)
(0.387075 0.371551 0.05)
(0.621482 0.258531 0.05)
(0.683995 0.29764 0.05)
(0.28305 0.499315 0.05)
(0.305424 0.479161 0.05)
(0.672943 0.522264 0.05)
(0.648245 0.547766 0.05)
(0.336144 0.561752 0.05)
(0.329491 0.573808 0.05)
(0.343443 0.548965 0.05)
(0.332589 0.551401 0.05)
(0.351371 0.535261 0.05)
(0.328287 0.53853 0.05)
(0.321191 0.548703 0.05)
(0.631182 0.4298 0.05)
(0.641102 0.421883 0.05)
(0.661832 0.431242 0.05)
(0.650521 0.41403 0.05)
(0.670513 0.452136 0.05)
(0.680233 0.444112 0.05)
(0.658894 0.405448 0.05)
(0.321683 0.588358 0.05)
(0.316638 0.598618 0.05)
(0.303801 0.596809 0.05)
(0.31242 0.608312 0.05)
(0.294131 0.580697 0.05)
(0.288099 0.588171 0.05)
(0.309096 0.617987 0.05)
(0.370977 0.499442 0.05)
(0.362246 0.515648 0.05)
(0.380019 0.482444 0.05)
(0.369425 0.48744 0.05)
(0.390017 0.464643 0.05)
(0.366641 0.474421 0.05)
(0.358286 0.489377 0.05)
(0.609577 0.453537 0.05)
(0.618519 0.441978 0.05)
(0.600836 0.466577 0.05)
(0.615512 0.465984 0.05)
(0.592254 0.481629 0.05)
(0.621967 0.484019 0.05)
(0.630915 0.475229 0.05)
(0.66804 0.362874 0.05)
(0.661484 0.347711 0.05)
(0.669815 0.37772 0.05)
(0.686377 0.373101 0.05)
(0.666876 0.390998 0.05)
(0.701017 0.385565 0.05)
(0.698241 0.366103 0.05)
(0.572529 0.5225 0.05)
(0.581259 0.504026 0.05)
(0.562307 0.541408 0.05)
(0.574783 0.536937 0.05)
(0.549605 0.560447 0.05)
(0.577516 0.554118 0.05)
(0.587937 0.537168 0.05)
(0.417861 0.424811 0.05)
(0.404881 0.441491 0.05)
(0.43243 0.40993 0.05)
(0.420655 0.411688 0.05)
(0.447346 0.397508 0.05)
(0.419954 0.399473 0.05)
(0.40761 0.413286 0.05)
(0.511944 0.599037 0.05)
(0.529327 0.58326 0.05)
(0.494396 0.613804 0.05)
(0.506088 0.613867 0.05)
(0.477478 0.628539 0.05)
(0.503739 0.628765 0.05)
(0.519938 0.615068 0.05)
(0.533619 0.350673 0.05)
(0.523682 0.356542 0.05)
(0.54201 0.344695 0.05)
(0.532243 0.336617 0.05)
(0.549444 0.338493 0.05)
(0.524145 0.320671 0.05)
(0.517913 0.327271 0.05)
(0.48216 0.376339 0.05)
(0.467495 0.38433 0.05)
(0.495569 0.369711 0.05)
(0.484665 0.364437 0.05)
(0.50829 0.36382 0.05)
(0.481684 0.352052 0.05)
(0.469979 0.359116 0.05)
(0.424333 0.709434 0.05)
(0.426983 0.699936 0.05)
(0.421093 0.717269 0.05)
(0.442123 0.724375 0.05)
(0.41648 0.723092 0.05)
(0.46551 0.734519 0.05)
(0.468247 0.726155 0.05)
(0.446853 0.661569 0.05)
(0.4589 0.6474 0.05)
(0.43842 0.674226 0.05)
(0.448718 0.67752 0.05)
(0.431866 0.685881 0.05)
(0.461623 0.690305 0.05)
(0.463706 0.679333 0.05)
(0.305599 0.652483 0.05)
(0.30816 0.664446 0.05)
(0.305224 0.641429 0.05)
(0.291174 0.642024 0.05)
(0.30635 0.630951 0.05)
(0.274129 0.626843 0.05)
(0.274288 0.640149 0.05)
(0.395805 0.728048 0.05)
(0.406552 0.727572 0.05)
(0.383027 0.725434 0.05)
(0.39904 0.741361 0.05)
(0.368838 0.720232 0.05)
(0.400133 0.753334 0.05)
(0.419324 0.755119 0.05)
(0.336804 0.702475 0.05)
(0.350447 0.711157 0.05)
(0.324898 0.692041 0.05)
(0.322826 0.704006 0.05)
(0.315823 0.680403 0.05)
(0.305891 0.703113 0.05)
(0.32244 0.717409 0.05)
(0.565442 0.323477 0.05)
(0.558412 0.330068 0.05)
(0.573437 0.317436 0.05)
(0.563262 0.304712 0.05)
(0.583236 0.312819 0.05)
(0.560903 0.28675 0.05)
(0.550738 0.292848 0.05)
(0.614492 0.312947 0.05)
(0.599371 0.310563 0.05)
(0.630813 0.319483 0.05)
(0.629957 0.303751 0.05)
(0.646122 0.329785 0.05)
(0.647005 0.299482 0.05)
(0.626826 0.289056 0.05)
(0.680437 0.408753 0.05)
(0.689552 0.427952 0.05)
(0.697064 0.408515 0.05)
(0.695634 0.446187 0.05)
(0.709371 0.403235 0.05)
(0.637536 0.445235 0.05)
(0.642266 0.464025 0.05)
(0.655661 0.457092 0.05)
(0.646199 0.4854 0.05)
(0.671765 0.470948 0.05)
(0.317234 0.576266 0.05)
(0.313139 0.56199 0.05)
(0.30419 0.572686 0.05)
(0.309212 0.544796 0.05)
(0.290124 0.562569 0.05)
(0.350335 0.522368 0.05)
(0.348839 0.508303 0.05)
(0.338809 0.524776 0.05)
(0.346456 0.492726 0.05)
(0.327478 0.522253 0.05)
(0.595297 0.496758 0.05)
(0.598561 0.515172 0.05)
(0.609593 0.496836 0.05)
(0.602031 0.536143 0.05)
(0.623625 0.504888 0.05)
(0.294973 0.617748 0.05)
(0.283206 0.60065 0.05)
(0.278488 0.613223 0.05)
(0.272169 0.580578 0.05)
(0.261256 0.608247 0.05)
(0.392063 0.448902 0.05)
(0.393058 0.433964 0.05)
(0.379588 0.454783 0.05)
(0.392243 0.419951 0.05)
(0.367108 0.458035 0.05)
(0.512177 0.350694 0.05)
(0.509322 0.336812 0.05)
(0.497149 0.344865 0.05)
(0.499858 0.322967 0.05)
(0.477688 0.339995 0.05)
(0.544906 0.578226 0.05)
(0.540264 0.595558 0.05)
(0.560198 0.5747 0.05)
(0.538634 0.611403 0.05)
(0.57538 0.574406 0.05)
(0.441784 0.703156 0.05)
(0.462609 0.714871 0.05)
(0.460014 0.702812 0.05)
(0.489339 0.721566 0.05)
(0.481772 0.699311 0.05)
(0.453713 0.383593 0.05)
(0.455383 0.370877 0.05)
(0.438297 0.384191 0.05)
(0.451186 0.359314 0.05)
(0.421298 0.385899 0.05)
(0.470447 0.646375 0.05)
(0.469801 0.662555 0.05)
(0.484563 0.645075 0.05)
(0.480845 0.67422 0.05)
(0.502059 0.643706 0.05)
(0.668442 0.333458 0.05)
(0.687002 0.341272 0.05)
(0.669657 0.318949 0.05)
(0.701441 0.350996 0.05)
(0.667004 0.304776 0.05)
(0.547701 0.321549 0.05)
(0.541648 0.303631 0.05)
(0.533309 0.313081 0.05)
(0.53563 0.287233 0.05)
(0.516145 0.305496 0.05)
(0.428785 0.738653 0.05)
(0.43836 0.750962 0.05)
(0.453513 0.743727 0.05)
(0.443022 0.761667 0.05)
(0.4782 0.744592 0.05)
(0.360255 0.727759 0.05)
(0.347651 0.732246 0.05)
(0.373332 0.74409 0.05)
(0.332129 0.733925 0.05)
(0.389036 0.758895 0.05)
(0.298915 0.672743 0.05)
(0.280695 0.660673 0.05)
(0.291046 0.682309 0.05)
(0.263543 0.647552 0.05)
(0.286725 0.694546 0.05)
(0.590024 0.295586 0.05)
(0.600964 0.283336 0.05)
(0.578961 0.283553 0.05)
(0.615169 0.27627 0.05)
(0.566501 0.273324 0.05)
(0.715241 0.326669 0.05)
(0.728621 0.357716 0.05)
(0.725443 0.376158 0.05)
(0.735272 0.390666 0.05)
(0.714672 0.359983 0.05)
(0.72035 0.394727 0.05)
(0.735196 0.423022 0.05)
(0.712647 0.49443 0.05)
(0.70134 0.512982 0.05)
(0.722929 0.472447 0.05)
(0.706206 0.480401 0.05)
(0.731231 0.446355 0.05)
(0.703245 0.463658 0.05)
(0.689313 0.482952 0.05)
(0.232279 0.515699 0.05)
(0.244426 0.497201 0.05)
(0.221606 0.538643 0.05)
(0.248732 0.531925 0.05)
(0.214527 0.566291 0.05)
(0.257881 0.554114 0.05)
(0.271444 0.541681 0.05)
(0.647732 0.57711 0.05)
(0.634841 0.590735 0.05)
(0.613336 0.58463 0.05)
(0.621296 0.604506 0.05)
(0.609538 0.561691 0.05)
(0.593246 0.581359 0.05)
(0.607592 0.618486 0.05)
(0.499874 0.250576 0.05)
(0.525401 0.24354 0.05)
(0.537987 0.253922 0.05)
(0.554809 0.23971 0.05)
(0.529322 0.269364 0.05)
(0.554066 0.261268 0.05)
(0.587368 0.241153 0.05)
(0.297263 0.441716 0.05)
(0.30836 0.431345 0.05)
(0.333648 0.44824 0.05)
(0.319112 0.419771 0.05)
(0.339664 0.472234 0.05)
(0.351568 0.453547 0.05)
(0.329732 0.407346 0.05)
(0.549801 0.738766 0.05)
(0.536201 0.754619 0.05)
(0.52252 0.747932 0.05)
(0.51816 0.768926 0.05)
(0.515111 0.731061 0.05)
(0.503835 0.747065 0.05)
(0.49474 0.781445 0.05)
(0.333792 0.770797 0.05)
(0.302817 0.752935 0.05)
(0.293339 0.732025 0.05)
(0.27617 0.73196 0.05)
(0.314564 0.7363 0.05)
(0.283716 0.710142 0.05)
(0.252932 0.707992 0.05)
(0.238668 0.687079 0.05)
(0.224375 0.655258 0.05)
(0.229863 0.623989 0.05)
(0.215885 0.622353 0.05)
(0.244295 0.635813 0.05)
(0.241278 0.605703 0.05)
(0.21291 0.590163 0.05)
(0.431439 0.290673 0.05)
(0.446992 0.278106 0.05)
(0.468464 0.289595 0.05)
(0.463997 0.267267 0.05)
(0.479592 0.307032 0.05)
(0.491995 0.295385 0.05)
(0.482781 0.257519 0.05)
(0.471345 0.789092 0.05)
(0.436993 0.793915 0.05)
(0.424361 0.783819 0.05)
(0.399275 0.791723 0.05)
(0.442352 0.774055 0.05)
(0.404277 0.773468 0.05)
(0.361107 0.782219 0.05)
(0.597636 0.629326 0.05)
(0.585804 0.642822 0.05)
(0.557325 0.641431 0.05)
(0.576868 0.65599 0.05)
(0.547049 0.626794 0.05)
(0.528905 0.643989 0.05)
(0.570953 0.669523 0.05)
(0.381221 0.341873 0.05)
(0.393682 0.32781 0.05)
(0.421178 0.333768 0.05)
(0.406375 0.313844 0.05)
(0.434393 0.347725 0.05)
(0.449192 0.334528 0.05)
(0.419934 0.300568 0.05)
(0.568224 0.680249 0.05)
(0.565705 0.694755 0.05)
(0.540527 0.691877 0.05)
(0.562805 0.710105 0.05)
(0.510571 0.681268 0.05)
(0.514855 0.695284 0.05)
(0.556856 0.726407 0.05)
(0.338628 0.396973 0.05)
(0.34981 0.382988 0.05)
(0.375786 0.388809 0.05)
(0.361147 0.368497 0.05)
(0.383891 0.40573 0.05)
(0.399269 0.386198 0.05)
(0.372563 0.353674 0.05)
(0.613156 0.247035 0.05)
(0.645677 0.26076 0.05)
(0.654379 0.275159 0.05)
(0.675287 0.280279 0.05)
(0.631886 0.271472 0.05)
(0.665026 0.291001 0.05)
(0.700104 0.304806 0.05)
(0.254706 0.485128 0.05)
(0.267231 0.472243 0.05)
(0.29613 0.49175 0.05)
(0.278454 0.460717 0.05)
(0.302374 0.519512 0.05)
(0.313474 0.507747 0.05)
(0.289087 0.449779 0.05)
(0.691902 0.525636 0.05)
(0.680135 0.539897 0.05)
(0.659367 0.533647 0.05)
(0.66864 0.553316 0.05)
(0.654049 0.511835 0.05)
(0.640895 0.523967 0.05)
(0.657335 0.56679 0.05)
(0.68288 0.511389 0.05)
(0.676137 0.492831 0.05)
(0.664256 0.501779 0.05)
(0.638075 0.557799 0.05)
(0.629529 0.532733 0.05)
(0.619304 0.545461 0.05)
(0.273525 0.508225 0.05)
(0.283654 0.536416 0.05)
(0.293877 0.529496 0.05)
(0.314371 0.471387 0.05)
(0.323238 0.499329 0.05)
(0.33198 0.487218 0.05)
(0.724356 0.435409 0.05)
(0.717661 0.420818 0.05)
(0.711312 0.44378 0.05)
(0.353251 0.41914 0.05)
(0.362801 0.439134 0.05)
(0.373731 0.422611 0.05)
(0.229754 0.570808 0.05)
(0.245016 0.585889 0.05)
(0.25095 0.56905 0.05)
(0.585303 0.614218 0.05)
(0.577403 0.596016 0.05)
(0.561588 0.611494 0.05)
(0.541868 0.666948 0.05)
(0.515141 0.656595 0.05)
(0.508593 0.669462 0.05)
(0.443608 0.310734 0.05)
(0.462884 0.325967 0.05)
(0.472381 0.317111 0.05)
(0.539992 0.719606 0.05)
(0.514834 0.706352 0.05)
(0.516699 0.718004 0.05)
(0.496997 0.269234 0.05)
(0.503889 0.287584 0.05)
(0.515353 0.278819 0.05)
(0.397937 0.359149 0.05)
(0.413094 0.372537 0.05)
(0.425432 0.359617 0.05)
(0.701982 0.319 0.05)
(0.686322 0.311507 0.05)
(0.702909 0.334643 0.05)
(0.484684 0.773102 0.05)
(0.487477 0.757814 0.05)
(0.467121 0.767256 0.05)
(0.249917 0.682946 0.05)
(0.266162 0.686285 0.05)
(0.253293 0.661159 0.05)
(0.353394 0.768238 0.05)
(0.373083 0.764729 0.05)
(0.342767 0.752028 0.05)
(0.59431 0.251654 0.05)
(0.577705 0.260232 0.05)
(0.604027 0.263173 0.05)
)


// ************************************************************************* //
