/*--------------------------------*- C++ -*----------------------------------*\
| =========                 |                                                 |
| \\      /  F ield         | OpenFOAM: The Open Source CFD Toolbox           |
|  \\    /   O peration     | Version:  v1806                                 |
|   \\  /    A nd           | Web:      www.OpenFOAM.com                      |
|    \\/     M anipulation  |                                                 |
\*---------------------------------------------------------------------------*/
FoamFile
{
    version     2.0;
    format      ascii;
    class       volScalarField;
    location    "0.04";
    object      p;
}
// * * * * * * * * * * * * * * * * * * * * * * * * * * * * * * * * * * * * * //

dimensions      [0 2 -2 0 0 0 0];


internalField   nonuniform List<scalar> 
5400
(
2.30068
1.85515
1.65168
1.56039
1.49527
1.44292
1.40062
1.36442
1.33156
1.30073
1.27115
1.24225
1.21358
1.18479
1.15559
1.12576
1.0951
1.06348
1.03079
0.996983
0.962172
0.926282
0.889443
0.851822
0.813618
0.775071
0.736451
0.698053
0.660187
0.623162
0.587279
0.552811
0.52
0.489046
0.460103
0.433274
0.408612
0.386121
0.365762
0.347461
0.33111
0.316581
0.303728
0.29239
0.282404
0.273608
0.265845
0.258962
0.252816
0.247272
0.242212
0.237527
0.23312
0.228908
0.224816
0.22078
0.216745
0.212666
0.208505
0.204233
0.199821
0.195247
0.1905
0.185569
0.180468
0.175169
0.169674
0.163986
0.158108
0.152047
0.145806
0.139389
0.132804
0.126062
0.119173
0.112144
0.104983
0.0976981
0.0902979
0.0827913
0.0751887
0.0675001
0.0597349
0.0519033
0.0440153
0.0360795
0.0281035
0.0200963
0.0120657
0.004022
1.88864
1.71962
1.60801
1.54682
1.49241
1.44263
1.40119
1.3654
1.33265
1.30183
1.27227
1.24339
1.21476
1.18602
1.15686
1.12706
1.09641
1.06478
1.03208
0.998272
0.963249
0.92719
0.89017
0.852339
0.813899
0.775094
0.736205
0.697541
0.65941
0.622137
0.58603
0.551371
0.518409
0.487349
0.458344
0.431493
0.406846
0.384407
0.364133
0.345938
0.329707
0.315309
0.302593
0.291396
0.281549
0.272883
0.265241
0.258473
0.252434
0.246987
0.242012
0.237399
0.233055
0.228898
0.224854
0.220859
0.216858
0.212806
0.208662
0.204402
0.200002
0.195441
0.190705
0.185786
0.180665
0.175358
0.16986
0.164169
0.158285
0.152215
0.145966
0.139541
0.132949
0.1262
0.119301
0.112264
0.105095
0.097801
0.0903919
0.0828771
0.075266
0.0675682
0.0597944
0.0519552
0.0440596
0.0361157
0.0281314
0.0201169
0.0120807
0.00402915
1.73644
1.64332
1.57177
1.52833
1.48241
1.4366
1.39746
1.36321
1.33151
1.30146
1.27251
1.24415
1.21595
1.18757
1.15871
1.12914
1.09866
1.06713
1.03444
1.00053
0.965385
0.929081
0.891727
0.853484
0.814561
0.775219
0.735757
0.696507
0.657782
0.61995
0.583338
0.548243
0.514925
0.483602
0.454432
0.427511
0.402881
0.380537
0.360426
0.34245
0.326479
0.312363
0.299943
0.289048
0.279502
0.271129
0.263765
0.257254
0.251451
0.246218
0.241435
0.236994
0.232801
0.228775
0.22484
0.220936
0.217013
0.213022
0.20893
0.204709
0.200337
0.195796
0.191076
0.186164
0.18105
0.175741
0.170238
0.164541
0.158649
0.152566
0.146301
0.139861
0.133254
0.126488
0.119574
0.112518
0.105331
0.098019
0.0905922
0.083059
0.0754297
0.0677149
0.0599247
0.0520682
0.0441545
0.0361929
0.0281917
0.0201608
0.0121074
0.00403824
1.63399
1.57377
1.5281
1.50078
1.46485
1.42519
1.38996
1.35837
1.32858
1.29998
1.27218
1.24475
1.21734
1.18961
1.16129
1.13215
1.10199
1.07066
1.03803
1.00406
0.968708
0.932054
0.894207
0.855338
0.815674
0.775496
0.735131
0.694933
0.655295
0.616581
0.579163
0.543371
0.509485
0.47774
0.448303
0.421268
0.396665
0.37447
0.354614
0.336979
0.321414
0.307744
0.295791
0.285369
0.276292
0.268376
0.261444
0.255334
0.249898
0.245001
0.240518
0.236343
0.232384
0.228558
0.224796
0.221035
0.217229
0.213338
0.209328
0.20517
0.200844
0.196337
0.191639
0.18674
0.181637
0.176328
0.170817
0.165106
0.159199
0.1531
0.146814
0.14035
0.133719
0.126929
0.119988
0.112906
0.105692
0.0983533
0.0908982
0.0833373
0.0756818
0.0679412
0.0601241
0.0522403
0.0443
0.0363126
0.0282852
0.0202273
0.012147
0.00405125
1.56354
1.5168
1.48672
1.47154
1.44436
1.41089
1.38007
1.3517
1.32436
1.29769
1.27145
1.24533
1.21903
1.19224
1.16471
1.1362
1.10652
1.07549
1.043
1.00897
0.973358
0.936247
0.897742
0.858025
0.817343
0.776005
0.734381
0.69288
0.651933
0.611971
0.573414
0.536638
0.501959
0.469629
0.439824
0.412636
0.38808
0.36611
0.346624
0.329474
0.314477
0.301434
0.290135
0.280374
0.271946
0.264652
0.258308
0.252748
0.247815
0.243372
0.239296
0.235479
0.231832
0.228276
0.224744
0.22118
0.217536
0.213775
0.209869
0.205796
0.201534
0.197072
0.192402
0.187521
0.182427
0.177119
0.171598
0.16587
0.159941
0.153817
0.147504
0.141011
0.134347
0.127523
0.120547
0.11343
0.106179
0.0988025
0.0913103
0.083714
0.0760232
0.068246
0.0603922
0.0524729
0.0444978
0.0364748
0.0284105
0.0203161
0.0122002
0.00406887
1.51214
1.47145
1.45039
1.44363
1.4234
1.39547
1.36896
1.34398
1.31938
1.29495
1.27061
1.24611
1.2212
1.19561
1.1691
1.14143
1.1124
1.08181
1.04952
1.01543
0.979542
0.941873
0.902535
0.861723
0.819712
0.776851
0.733565
0.690328
0.647643
0.606017
0.565945
0.527865
0.492143
0.459055
0.428786
0.401421
0.376956
0.355311
0.336341
0.319852
0.305619
0.293406
0.282971
0.274075
0.266489
0.259998
0.254409
0.249545
0.245247
0.241379
0.237814
0.234447
0.23119
0.22797
0.224724
0.221401
0.217956
0.214356
0.210579
0.206604
0.202417
0.198012
0.19338
0.188519
0.183432
0.17812
0.172587
0.166837
0.16088
0.154724
0.148376
0.141843
0.135138
0.128271
0.121252
0.114089
0.106791
0.099368
0.0918308
0.0841889
0.0764513
0.0686279
0.0607297
0.0527667
0.0447467
0.0366774
0.0285671
0.0204279
0.0122677
0.0040914
1.47232
1.43464
1.419
1.41809
1.40327
1.38007
1.35755
1.33591
1.31414
1.29216
1.26994
1.24731
1.22405
1.19992
1.17467
1.14806
1.11986
1.08986
1.05788
1.02377
0.987561
0.94922
0.908854
0.866674
0.822983
0.778181
0.732759
0.68728
0.642347
0.598573
0.55655
0.5168
0.479751
0.445719
0.414899
0.38736
0.363063
0.34188
0.32361
0.308002
0.294773
0.283633
0.274299
0.266495
0.259963
0.254468
0.249805
0.245792
0.242268
0.239091
0.236137
0.233307
0.230516
0.227693
0.224781
0.221738
0.218525
0.215113
0.211483
0.207621
0.203521
0.199177
0.194585
0.189745
0.184661
0.17934
0.173788
0.168012
0.162021
0.155823
0.14943
0.14285
0.136096
0.129176
0.122101
0.114882
0.107529
0.100051
0.0924582
0.08476
0.0769668
0.0690894
0.0611377
0.0531201
0.0450445
0.0369199
0.0287556
0.0205633
0.0123495
0.00411854
1.44021
1.40419
1.39199
1.39523
1.38461
1.36537
1.34644
1.32799
1.30906
1.28962
1.2697
1.24916
1.2278
1.20537
1.18164
1.15632
1.12916
1.09992
1.06838
1.03434
0.997773
0.958646
0.91705
0.873197
0.827422
0.780185
0.732066
0.68374
0.635944
0.589436
0.544939
0.503089
0.464395
0.429225
0.397779
0.370102
0.346099
0.325573
0.308248
0.293794
0.281855
0.272077
0.26412
0.257665
0.252422
0.248135
0.244584
0.24158
0.238963
0.236592
0.234348
0.232135
0.229874
0.227504
0.224976
0.222247
0.21929
0.216085
0.212619
0.208881
0.20487
0.200588
0.196034
0.191211
0.186125
0.180791
0.175213
0.169401
0.163365
0.157118
0.150671
0.144035
0.13722
0.130236
0.123097
0.115813
0.108394
0.10085
0.0931905
0.0854274
0.0775708
0.0696301
0.061614
0.0535313
0.0453912
0.0372034
0.0289763
0.0207214
0.0124443
0.00414992
1.41354
1.37855
1.36868
1.37494
1.36763
1.35174
1.336
1.32055
1.30443
1.2876
1.27012
1.25187
1.23264
1.21218
1.19022
1.16647
1.1406
1.11233
1.08134
1.0475
1.01061
0.970609
0.92757
0.881703
0.833375
0.783117
0.73162
0.679708
0.628293
0.578327
0.530719
0.486259
0.445562
0.409051
0.376931
0.3492
0.325687
0.306091
0.290032
0.277078
0.266781
0.258704
0.252443
0.247633
0.243944
0.241093
0.238848
0.237017
0.235442
0.233986
0.23254
0.231018
0.22935
0.227482
0.225371
0.222985
0.220304
0.21732
0.214023
0.210414
0.206495
0.202271
0.197748
0.192938
0.187845
0.182486
0.176871
0.171012
0.164924
0.158619
0.152106
0.145399
0.138511
0.131455
0.124242
0.116882
0.109386
0.101765
0.09403
0.0861928
0.078262
0.0702466
0.0621562
0.0540001
0.0457874
0.0375273
0.0292279
0.0209007
0.0125517
0.00418553
1.39084
1.35656
1.34836
1.35694
1.3523
1.33927
1.32641
1.3138
1.30042
1.28626
1.27136
1.25559
1.23874
1.22053
1.20066
1.17878
1.15452
1.12753
1.09735
1.06381
1.02663
0.98568
0.940976
0.892715
0.841289
0.787308
0.7316
0.67518
0.619198
0.564868
0.513365
0.46568
0.42257
0.384517
0.351719
0.324101
0.30137
0.283086
0.26872
0.257702
0.24947
0.243496
0.239303
0.236468
0.234619
0.233455
0.232723
0.232232
0.23183
0.231396
0.230836
0.230071
0.229041
0.227707
0.226041
0.224018
0.221626
0.218866
0.215741
0.212257
0.208424
0.204252
0.199753
0.194939
0.18983
0.184434
0.17877
0.172854
0.166702
0.160324
0.153734
0.146946
0.139975
0.132834
0.125534
0.118086
0.110503
0.102796
0.0949769
0.0870544
0.0790379
0.070938
0.0627644
0.0545262
0.0462316
0.0378898
0.0295091
0.0211012
0.0126721
0.00422558
1.3711
1.33735
1.33044
1.34086
1.33846
1.32793
1.3177
1.30778
1.29713
1.2857
1.27352
1.26045
1.24624
1.23061
1.21318
1.19354
1.17125
1.14579
1.11684
1.08385
1.0465
1.00456
0.957982
0.906909
0.851754
0.793206
0.732256
0.670166
0.608405
0.548557
0.492178
0.440523
0.39453
0.354749
0.321346
0.294126
0.272617
0.256171
0.244058
0.235534
0.229887
0.226483
0.22477
0.22427
0.224578
0.225361
0.226358
0.227381
0.22829
0.228977
0.229368
0.229407
0.229054
0.228282
0.227072
0.225417
0.223318
0.220781
0.21782
0.214452
0.210693
0.20656
0.202068
0.19724
0.192096
0.186652
0.180926
0.174938
0.168703
0.162238
0.155559
0.14868
0.141613
0.134373
0.126973
0.119426
0.111746
0.103944
0.0960282
0.0880093
0.0798978
0.0717045
0.0634387
0.0551086
0.0467224
0.0382899
0.0298197
0.0213233
0.0128056
0.00427008
1.35354
1.32023
1.31437
1.32633
1.32587
1.31757
1.3098
1.30248
1.29454
1.28592
1.27663
1.26649
1.25524
1.24255
1.22798
1.21106
1.19123
1.16787
1.14044
1.10833
1.07102
1.02813
0.979489
0.925165
0.865553
0.801422
0.733948
0.664706
0.595596
0.528706
0.466228
0.409692
0.360282
0.318626
0.284812
0.258455
0.23881
0.224933
0.215818
0.210489
0.208059
0.20777
0.208993
0.21121
0.213993
0.216993
0.219943
0.222651
0.224991
0.226887
0.228292
0.229173
0.229516
0.229313
0.228561
0.227268
0.225449
0.223121
0.22031
0.217041
0.213339
0.209224
0.204721
0.19986
0.194663
0.189151
0.183345
0.177267
0.170936
0.164371
0.157587
0.150599
0.143421
0.13607
0.12856
0.120905
0.113116
0.105205
0.0971816
0.0890568
0.0808413
0.0725452
0.0641772
0.0557455
0.0472591
0.0387281
0.0301604
0.0215668
0.0129518
0.00431876
1.33756
1.30463
1.29966
1.31296
1.31424
1.308
1.30255
1.29777
1.29257
1.28687
1.28064
1.2737
1.26576
1.25644
1.24524
1.23158
1.21478
1.19413
1.16883
1.13807
1.10115
1.05746
1.00664
0.948628
0.883745
0.812815
0.737222
0.658927
0.580402
0.504364
0.434274
0.37173
0.318306
0.274704
0.240869
0.216103
0.19925
0.188939
0.183793
0.182548
0.184105
0.187563
0.192225
0.197558
0.203134
0.208601
0.213699
0.218247
0.222137
0.225319
0.227779
0.229521
0.230563
0.23092
0.230609
0.229657
0.228095
0.225952
0.223264
0.220067
0.216393
0.21227
0.207738
0.202821
0.197547
0.191943
0.186036
0.179851
0.173408
0.166725
0.159818
0.152704
0.145402
0.137928
0.130295
0.122518
0.114609
0.106578
0.0984372
0.0901967
0.081867
0.0734579
0.064978
0.0564361
0.0478416
0.039204
0.0305303
0.0218308
0.0131099
0.00437129
1.32264
1.29004
1.28587
1.30038
1.30324
1.29894
1.29573
1.29347
1.29105
1.28837
1.28542
1.28199
1.27776
1.27231
1.26506
1.25535
1.24236
1.22516
1.20274
1.17403
1.13804
1.09388
1.04091
0.978809
0.907777
0.828621
0.742916
0.653101
0.562499
0.475241
0.394751
0.324689
0.266594
0.221121
0.187943
0.165879
0.153153
0.147765
0.147838
0.151767
0.158231
0.166184
0.174852
0.183701
0.19235
0.200503
0.20792
0.214433
0.219958
0.224477
0.228014
0.230617
0.232338
0.233224
0.23332
0.232673
0.23133
0.229334
0.226733
0.223573
0.219887
0.215732
0.211137
0.206135
0.200759
0.195041
0.189013
0.182698
0.17612
0.169298
0.162252
0.154999
0.147558
0.139946
0.132176
0.124264
0.116223
0.108062
0.0997936
0.0914268
0.0829724
0.0744404
0.0658398
0.0571797
0.0484689
0.039716
0.0309275
0.0221137
0.0132792
0.00442752
1.30833
1.27604
1.27258
1.28821
1.29256
1.2901
1.28907
1.28931
1.28973
1.29021
1.29076
1.29116
1.29109
1.29007
1.28748
1.2825
1.27426
1.2615
1.24297
1.21728
1.18307
1.13903
1.08413
1.01771
0.939656
0.85064
0.752347
0.647698
0.540903
0.437885
0.344837
0.26574
0.202323
0.155355
0.124016
0.106369
0.0996869
0.101063
0.107951
0.118358
0.13077
0.144035
0.157329
0.170129
0.182129
0.193129
0.202965
0.211514
0.218719
0.224591
0.229197
0.232631
0.234988
0.236356
0.236808
0.236411
0.235231
0.233329
0.230766
0.227592
0.22387
0.219637
0.21494
0.209819
0.204313
0.198455
0.192279
0.18581
0.179075
0.172095
0.164891
0.157483
0.149887
0.142121
0.134202
0.126143
0.117957
0.109656
0.101248
0.0927437
0.0841548
0.0754911
0.0667614
0.0579745
0.0491387
0.0402619
0.0313504
0.0224147
0.0134592
0.00448741
1.29422
1.26222
1.25943
1.27609
1.28184
1.28114
1.28224
1.28498
1.28827
1.29205
1.29633
1.30091
1.30547
1.30952
1.31239
1.31321
1.31075
1.30368
1.29037
1.26903
1.23781
1.19489
1.13869
1.06799
0.982178
0.881525
0.767636
0.644011
0.515572
0.382514
0.279241
0.19019
0.121421
0.0738902
0.0464675
0.0359394
0.0381002
0.0487364
0.0644304
0.0828032
0.102265
0.12168
0.140228
0.15741
0.173014
0.186981
0.199277
0.209863
0.218727
0.225918
0.231545
0.235751
0.238676
0.240448
0.241178
0.240959
0.239874
0.238
0.235413
0.232181
0.228362
0.224007
0.219169
0.213893
0.20822
0.202191
0.195837
0.189189
0.182275
0.175116
0.167736
0.160153
0.152386
0.144452
0.136369
0.128151
0.119809
0.111354
0.102795
0.0941444
0.0854121
0.0766079
0.0677405
0.0588182
0.0498488
0.0408402
0.0317982
0.0227333
0.01365
0.00455091
1.27994
1.24821
1.24603
1.26366
1.27072
1.27171
1.27487
1.28008
1.28629
1.29347
1.30168
1.31078
1.32046
1.33027
1.33949
1.34716
1.35191
1.35211
1.34575
1.33056
1.30409
1.26386
1.20754
1.13315
1.03924
0.925196
0.791911
0.643774
0.493983
0.36398
0.216254
0.104946
0.0245294
-0.0255109
-0.0473056
-0.047022
-0.0320775
-0.00886649
0.0180804
0.0460812
0.073664
0.0999374
0.124253
0.146189
0.165618
0.182625
0.197351
0.209895
0.220327
0.228742
0.235294
0.240169
0.243554
0.245627
0.246535
0.246403
0.245323
0.243402
0.240725
0.237365
0.23339
0.228862
0.223837
0.218363
0.212487
0.206251
0.199691
0.192838
0.185719
0.17836
0.170782
0.163006
0.155051
0.146936
0.138676
0.130285
0.121774
0.113153
0.104434
0.0956266
0.0867418
0.0777883
0.0687744
0.0597084
0.0505977
0.0414498
0.0322702
0.0230693
0.013851
0.00461785
1.26516
1.23367
1.23206
1.25056
1.25885
1.26142
1.26656
1.27418
1.28329
1.29394
1.30625
1.32017
1.33546
1.35173
1.36826
1.38406
1.39764
1.40706
1.40987
1.40322
1.38394
1.34871
1.29431
1.21773
1.11626
0.987681
0.830672
0.644781
0.424197
0.201786
0.0595349
-0.0504668
-0.123168
-0.16123
-0.16563
-0.145542
-0.111049
-0.0707
-0.0296633
0.00968112
0.0463712
0.080025
0.110384
0.137246
0.160595
0.180641
0.197707
0.212062
0.223889
0.233359
0.240677
0.246067
0.249776
0.252018
0.252978
0.252806
0.251642
0.249586
0.246734
0.243172
0.238977
0.234218
0.228953
0.223237
0.217118
0.21064
0.203841
0.196753
0.189405
0.181822
0.174026
0.16604
0.157881
0.149567
0.141115
0.132538
0.123845
0.115049
0.106159
0.0971867
0.0881404
0.0790289
0.0698605
0.0606431
0.0513839
0.0420895
0.0327655
0.0234217
0.014062
0.00468808
1.24956
1.21828
1.21717
1.23647
1.24586
1.24989
1.25688
1.2668
1.27874
1.29283
1.30933
1.32829
1.34962
1.37303
1.39789
1.4232
1.44753
1.46853
1.48332
1.48833
1.47952
1.45257
1.40322
1.32734
1.22056
1.07777
0.895055
0.67983
0.469067
0.2758
0.0698413
-0.112754
-0.231534
-0.297601
-0.297693
-0.255805
-0.195514
-0.133628
-0.0761963
-0.0242696
0.0221719
0.0634399
0.0998364
0.131535
0.158697
0.18165
0.20087
0.216804
0.229782
0.240071
0.24794
0.253638
0.257492
0.25973
0.260598
0.260269
0.258891
0.256588
0.253468
0.249623
0.245137
0.240082
0.234522
0.228514
0.22211
0.215353
0.208282
0.200929
0.193325
0.185495
0.177462
0.169246
0.160867
0.15234
0.143682
0.134905
0.12602
0.117037
0.107968
0.0988204
0.0896038
0.0803263
0.0709959
0.06162
0.0522052
0.0427577
0.0332826
0.0237897
0.0142822
0.00476144
1.23287
1.20178
1.2011
1.22107
1.23142
1.23674
1.24538
1.2574
1.27199
1.28941
1.31005
1.33415
1.36182
1.39296
1.42715
1.4634
1.50068
1.53609
1.56634
1.58705
1.59301
1.57864
1.53864
1.4682
1.3619
1.20912
0.98875
0.665421
0.200143
-0.272187
-0.519782
-0.591116
-0.610626
-0.586147
-0.4984
-0.393035
-0.28628
-0.194655
-0.118386
-0.0532397
0.00308283
0.0518546
0.0940047
0.130167
0.160776
0.186308
0.207367
0.224557
0.238363
0.249162
0.257335
0.263042
0.266791
0.268862
0.269472
0.268829
0.267105
0.264438
0.260945
0.256728
0.251873
0.246456
0.240543
0.234193
0.227459
0.220383
0.213005
0.205358
0.197472
0.189372
0.181081
0.172617
0.164
0.155245
0.146367
0.137379
0.12829
0.119112
0.109853
0.100522
0.0911275
0.0816767
0.0721773
0.0626362
0.0530592
0.0434522
0.0338201
0.0241722
0.0145113
0.00483783
1.21487
1.18392
1.18357
1.20408
1.21521
1.22158
1.23161
1.24546
1.2624
1.28286
1.30741
1.33654
1.37063
1.40994
1.45438
1.50344
1.5556
1.60868
1.65872
1.7003
1.72661
1.73019
1.70446
1.64527
1.55045
1.40666
1.18771
0.856361
0.515482
0.281291
0.0255566
-0.220782
-0.438253
-0.724277
-0.671717
-0.523102
-0.360781
-0.241366
-0.149827
-0.0735477
-0.00852158
0.0470064
0.0942883
0.134293
0.167743
0.195313
0.217732
0.235738
0.249962
0.260834
0.268792
0.274401
0.277844
0.2795
0.279648
0.278521
0.276304
0.273145
0.26917
0.264485
0.25918
0.253331
0.247005
0.240262
0.233151
0.225717
0.217999
0.210028
0.201835
0.193442
0.184872
0.176142
0.16727
0.158273
0.149163
0.139952
0.13065
0.121266
0.111809
0.102287
0.0927067
0.0830758
0.073401
0.0636883
0.0539431
0.044171
0.0343767
0.0245687
0.0147489
0.00491707
1.19537
1.16452
1.16439
1.18528
1.19695
1.20408
1.21517
1.23043
1.24928
1.2723
1.3003
1.33404
1.37431
1.4218
1.47699
1.53991
1.60955
1.68416
1.75941
1.82865
1.88269
1.91074
1.90341
1.85834
1.79153
1.68033
1.50333
1.06003
-0.55176
-2.96357
-4.88041
-4.59337
-3.25594
-1.85842
-0.991106
-0.673275
-0.394814
-0.25856
-0.164274
-0.0820861
-0.0106408
0.050382
0.10192
0.144988
0.180485
0.209357
0.232477
0.250712
0.264808
0.275396
0.282929
0.287906
0.290704
0.291685
0.291154
0.289355
0.286487
0.282702
0.278131
0.272881
0.267043
0.260691
0.253891
0.246701
0.23917
0.231339
0.223247
0.214925
0.206398
0.19769
0.188821
0.179808
0.170667
0.161414
0.15206
0.142615
0.13309
0.123492
0.113829
0.104109
0.0943364
0.0845191
0.0746627
0.0647728
0.0548543
0.0449123
0.0349509
0.0249778
0.0149941
0.00499886
1.17426
1.14345
1.14342
1.16448
1.17643
1.18398
1.19567
1.21182
1.23197
1.25685
1.28751
1.32508
1.37079
1.42595
1.49183
1.56937
1.65857
1.75894
1.8661
1.97218
2.06448
2.12573
2.13827
2.09316
2.09159
2.07482
0.831855
-4.54609
-14.8454
-21.9646
-24.1633
-23.1797
-18.5441
-12.8514
-5.3503
-1.5791
-0.450802
-0.246023
-0.15907
-0.0783983
-0.00266666
0.0629693
0.1179
0.163197
0.199761
0.229029
0.252063
0.269865
0.283272
0.29299
0.299588
0.303577
0.305395
0.305424
0.303979
0.301315
0.29763
0.293083
0.2878
0.281888
0.275432
0.268505
0.261172
0.253485
0.245491
0.237228
0.22873
0.220027
0.211143
0.202099
0.192913
0.183601
0.174178
0.164656
0.155047
0.145359
0.135602
0.125782
0.115907
0.105981
0.0960107
0.0860013
0.0759583
0.0658863
0.0557899
0.0456737
0.0355409
0.0253981
0.0152459
0.0050828
1.15148
1.12064
1.12057
1.14159
1.15351
1.16107
1.17285
1.18925
1.20988
1.23566
1.26788
1.308
1.35778
1.4193
1.4949
1.58697
1.6975
1.82697
1.97413
2.12997
2.27712
2.38689
2.42529
2.38446
2.2155
-0.0507049
-9.69494
-26.3824
-35.6272
-39.0196
-40.5785
-40.4185
-37.6943
-32.5611
-18.6166
-7.23152
-1.21878
-0.35546
-0.164608
-0.0694738
0.0136214
0.0852168
0.14307
0.189349
0.226239
0.254953
0.276945
0.293442
0.305425
0.313673
0.318818
0.321402
0.321891
0.320677
0.31808
0.314351
0.309686
0.304238
0.29813
0.291459
0.284305
0.276738
0.268814
0.260583
0.252084
0.243353
0.234421
0.225312
0.216049
0.20665
0.197131
0.187506
0.177787
0.167986
0.158112
0.148173
0.138176
0.128128
0.118034
0.107897
0.0977235
0.0875172
0.0772829
0.0670247
0.0567465
0.0464521
0.0361439
0.0258275
0.015503
0.00516846
1.12704
1.09611
1.09586
1.1166
1.12815
1.13527
1.14656
1.16244
1.18261
1.20809
1.24037
1.28122
1.33293
1.39841
1.4813
1.58594
1.71716
1.87913
2.07437
2.2978
2.52845
2.71416
2.76519
2.555
0.279175
-10.7457
-31.3208
-40.1833
-41.2912
-41.1751
-38.1068
-37.7008
-38.2735
-40.4859
-33.6382
-17.1926
-3.85217
-0.409634
-0.101294
-0.0215317
0.0508986
0.121705
0.179956
0.225565
0.260851
0.287571
0.307347
0.321564
0.331309
0.337422
0.340567
0.341306
0.340107
0.337358
0.33337
0.328383
0.322577
0.316097
0.309053
0.301533
0.293608
0.285339
0.276773
0.267954
0.258914
0.249684
0.240289
0.230753
0.221092
0.211321
0.201455
0.191504
0.181479
0.171389
0.161242
0.151045
0.140803
0.130521
0.120202
0.10985
0.099468
0.0890607
0.0786314
0.0681835
0.05772
0.0472441
0.0367571
0.026264
0.0157641
0.00525544
1.10106
1.06997
1.06938
1.0896
1.10044
1.10665
1.11681
1.13135
1.14998
1.17376
1.20427
1.24351
1.29415
1.35985
1.44559
1.55802
1.70578
1.89917
2.14853
2.4619
2.82967
3.17596
3.26646
1.31581
-9.83174
-31.1724
-40.9481
-40.6674
-33.6721
-26.6694
-17.7436
-14.306
-18.5215
-34.8328
-40.1289
-28.2774
-8.23334
-0.952892
-0.179503
0.00146654
0.0925102
0.169382
0.228448
0.271904
0.303917
0.327085
0.343328
0.354186
0.360822
0.364097
0.364686
0.363135
0.359893
0.355326
0.34972
0.343288
0.336195
0.328563
0.320486
0.312036
0.303275
0.294248
0.284996
0.27555
0.265936
0.256181
0.246302
0.236319
0.226244
0.216088
0.205863
0.195577
0.185237
0.174852
0.164425
0.153964
0.143472
0.13295
0.122402
0.11183
0.101237
0.0906253
0.079998
0.0693575
0.0587061
0.048046
0.0373777
0.0267055
0.0160283
0.00534338
1.0737
1.04238
1.04132
1.06078
1.07058
1.07541
1.08382
1.09618
1.11214
1.1327
1.15941
1.19426
1.24006
1.30088
1.38265
1.4941
1.64809
1.86315
2.16523
2.58195
3.16578
3.83078
3.06344
-7.34046
-30.1845
-40.8698
-40.775
-30.5551
-21.1589
-11.9893
-5.38626
-3.0005
-4.83425
-26.5892
-40.5436
-34.4292
-11.3527
-1.37019
-0.0897461
0.103825
0.172159
0.238995
0.292357
0.329878
0.355947
0.373549
0.384732
0.391061
0.393682
0.39342
0.390906
0.386641
0.381027
0.374384
0.366952
0.358915
0.350405
0.341518
0.332325
0.322879
0.313226
0.303397
0.29342
0.283316
0.273105
0.262802
0.252423
0.241977
0.231476
0.220925
0.210333
0.199704
0.189043
0.178356
0.167646
0.156917
0.146169
0.135405
0.124625
0.11383
0.103023
0.0922046
0.081377
0.0705419
0.0597007
0.0488545
0.0380033
0.0271504
0.0162944
0.00543195
1.04521
1.01362
1.01194
1.03045
1.0389
1.04193
1.04801
1.0574
1.06962
1.08549
1.10633
1.13388
1.17068
1.22054
1.28939
1.38658
1.52738
1.73713
2.05979
2.55804
3.4321
3.87954
-4.53085
-28.6528
-41.6949
-41.6543
-30.1796
-20.1388
-12.3836
-7.78824
-5.4521
-3.78002
-5.38631
-27.093
-41.7906
-37.1489
-13.0684
-1.75455
-0.087499
0.176503
0.259763
0.324006
0.369994
0.398808
0.416425
0.42644
0.431017
0.43166
0.429396
0.424945
0.418837
0.411484
0.403213
0.394274
0.384851
0.375078
0.365049
0.354826
0.344452
0.333959
0.323372
0.312707
0.301978
0.291194
0.280366
0.269503
0.258609
0.247693
0.236756
0.225805
0.21484
0.203863
0.192878
0.181886
0.17089
0.159889
0.148884
0.137874
0.12686
0.115841
0.104818
0.0937918
0.0827628
0.0717319
0.0606998
0.0496667
0.0386315
0.0275971
0.0165615
0.00552084
1.01591
0.983997
0.981614
0.999003
1.00586
1.00674
1.01002
1.01579
1.02337
1.03329
1.04645
1.06405
1.08789
1.12072
1.16706
1.23437
1.33549
1.49348
1.75162
2.1819
3.06224
-1.18498
-23.4227
-40.4096
-42.6085
-31.546
-19.849
-12.4926
-9.69379
-7.96929
-6.48323
-5.25304
-11.7901
-33.3351
-42.1309
-34.8805
-11.282
-1.28368
0.0687406
0.310348
0.384074
0.433566
0.46383
0.478753
0.484617
0.484827
0.481275
0.47516
0.467253
0.458066
0.447966
0.437234
0.42609
0.414695
0.403161
0.391562
0.379944
0.36833
0.356734
0.345161
0.333615
0.322094
0.310596
0.299121
0.287666
0.276233
0.26482
0.253428
0.242054
0.230698
0.219359
0.208033
0.196722
0.185424
0.17414
0.162867
0.151603
0.140348
0.129099
0.117855
0.106616
0.0953808
0.08415
0.0729233
0.0617001
0.0504796
0.0392603
0.0280441
0.0168288
0.00560979
0.986184
0.95391
0.950748
0.966902
0.972
0.970508
0.970666
0.972389
0.974717
0.977805
0.982032
0.987812
0.995766
1.00692
1.023
1.04696
1.08398
1.1433
1.2384
1.40631
1.37915
-14.2303
-36.384
-42.9985
-34.9192
-21.1713
-11.834
-9.4919
-8.8558
-8.31297
-7.73823
-9.4729
-21.579
-38.257
-41.6496
-29.004
-7.84482
-0.439978
0.351403
0.51067
0.548088
0.567185
0.572114
0.56767
0.558581
0.547033
0.534108
0.520422
0.506324
0.492026
0.477677
0.463388
0.449247
0.435306
0.421598
0.408129
0.39489
0.381864
0.369029
0.356366
0.343852
0.331469
0.319199
0.307029
0.294947
0.282944
0.271012
0.259145
0.247335
0.235577
0.223864
0.212191
0.200554
0.188952
0.17738
0.165835
0.154314
0.142814
0.131331
0.119863
0.108408
0.0969653
0.0855337
0.0741117
0.0626979
0.0512905
0.0398874
0.0284899
0.0170954
0.00569853
0.956424
0.923781
0.919809
0.934678
0.937946
0.933983
0.930891
0.928387
0.925228
0.921165
0.915989
0.909237
0.900204
0.887833
0.870496
0.845443
0.808306
0.751123
0.655625
0.559133
-2.7221
-24.6349
-40.951
-42.4983
-26.8219
-12.6858
-7.97912
-8.09421
-8.54558
-9.02325
-10.1424
-17.1096
-30.7432
-40.3528
-37.3528
-20.2054
-2.43149
0.595352
0.811155
0.788746
0.747803
0.717697
0.688959
0.661178
0.635065
0.61062
0.587669
0.566023
0.545502
0.525955
0.507276
0.489389
0.472229
0.455739
0.43986
0.424529
0.40968
0.395252
0.381191
0.367448
0.353977
0.340741
0.327708
0.314852
0.302151
0.289586
0.277142
0.264806
0.252566
0.24041
0.228328
0.216311
0.204354
0.19245
0.180594
0.16878
0.157004
0.145261
0.133546
0.121856
0.110188
0.0985395
0.0869087
0.075293
0.0636897
0.0520966
0.0405109
0.0289333
0.0173606
0.00578683
0.927057
0.89405
0.889279
0.902876
0.904339
0.897946
0.891673
0.885053
0.876581
0.865638
0.851477
0.832846
0.807852
0.773596
0.725544
0.655993
0.552847
0.388012
0.127298
-0.309397
-6.68379
-30.1543
-42.1514
-39.9222
-19.3636
-7.82528
-6.35707
-7.3161
-8.51055
-10.1476
-15.2576
-26.7258
-37.9513
-40.1768
-28.1607
-8.51098
1.11362
1.44633
1.23065
1.05616
0.943946
0.865235
0.80343
0.752668
0.709768
0.672625
0.639826
0.610384
0.583585
0.558923
0.536037
0.514657
0.494574
0.475618
0.457641
0.440508
0.424103
0.408321
0.393073
0.378282
0.363883
0.34982
0.336046
0.322524
0.30922
0.296108
0.283166
0.270374
0.257714
0.245169
0.232726
0.220373
0.2081
0.1959
0.183765
0.171688
0.159661
0.147679
0.135736
0.123827
0.111949
0.100097
0.0882699
0.0764626
0.064672
0.0528951
0.0411286
0.0293728
0.0176236
0.00587442
0.898507
0.865154
0.859628
0.872031
0.871804
0.863153
0.853951
0.843586
0.830349
0.813341
0.79142
0.762783
0.724742
0.673243
0.602102
0.501198
0.356349
0.13488
-0.155698
-0.729074
-7.6476
-31.5364
-42.2914
-36.3847
-14.2363
-5.39732
-5.39901
-6.72108
-8.96137
-14.1085
-25.0193
-36.513
-42.4994
-33.482
-13.9872
-0.0551985
2.18406
1.85077
1.49652
1.26202
1.1066
0.993116
0.905678
0.835895
0.778514
0.73014
0.688482
0.651943
0.619391
0.590021
0.563246
0.53863
0.515832
0.49458
0.474642
0.455824
0.437957
0.4209
0.404531
0.388749
0.373469
0.358619
0.344139
0.32998
0.3161
0.302464
0.289043
0.275812
0.262746
0.249825
0.237032
0.224352
0.211774
0.199286
0.18688
0.174545
0.162273
0.150058
0.137891
0.125768
0.113684
0.101633
0.0896122
0.0776163
0.0656411
0.0536831
0.0417384
0.0298067
0.0178834
0.00596097
0.871171
0.837508
0.831302
0.842634
0.840908
0.830277
0.818545
0.805008
0.787838
0.765976
0.738086
0.702127
0.655126
0.592731
0.508502
0.392493
0.230274
-0.0061986
-0.346063
-0.766203
-7.27441
-29.4381
-42.2273
-34.507
-13.4804
-4.58005
-4.67806
-6.07907
-10.3472
-24.4788
-35.8087
-42.7844
-38.5398
-18.7529
-2.15396
2.15611
2.28136
1.93516
1.62278
1.39548
1.22488
1.09321
0.989664
0.906433
0.838069
0.780772
0.73184
0.689338
0.651873
0.618431
0.588261
0.560796
0.535593
0.51229
0.490592
0.47025
0.451055
0.432832
0.415433
0.398737
0.38264
0.367058
0.351918
0.337162
0.322739
0.308608
0.294734
0.281084
0.267631
0.25435
0.241221
0.228228
0.215356
0.202591
0.189922
0.177338
0.164829
0.152387
0.140003
0.127671
0.115385
0.10314
0.09093
0.0787492
0.066593
0.0544574
0.0423379
0.0302335
0.0181389
0.00604611
0.845409
0.811482
0.804693
0.815115
0.812132
0.799868
0.786097
0.770086
0.749968
0.724662
0.69284
0.652526
0.600956
0.534205
0.446703
0.331112
0.1755
-0.0327697
-0.338115
-0.484376
-4.86967
-22.7809
-39.0555
-34.9693
-17.4886
-4.40472
-2.64332
-6.24348
-22.4908
-36.1226
-44.4236
-42.3568
-25.0557
-4.53618
2.1106
2.47208
2.25758
1.95714
1.69312
1.47742
1.30405
1.16522
1.05333
0.962031
0.88644
0.822872
0.768576
0.721518
0.680195
0.643489
0.610551
0.580729
0.553507
0.528463
0.505253
0.48359
0.463232
0.443979
0.425663
0.408145
0.391311
0.375063
0.35932
0.344015
0.329091
0.3145
0.300202
0.286159
0.272341
0.25872
0.245274
0.231982
0.218829
0.205798
0.192878
0.180055
0.167318
0.154657
0.142063
0.129529
0.117047
0.104613
0.0922178
0.0798567
0.0675239
0.0552148
0.0429246
0.0306513
0.0183891
0.00612945
0.821531
0.78739
0.78013
0.789821
0.785845
0.772326
0.757046
0.739289
0.717233
0.689888
0.656093
0.614189
0.562024
0.496552
0.413223
0.310329
0.177919
0.00959371
-0.224384
-0.422404
-1.81339
-14.3594
-31.5753
-33.4509
-25.6795
-13.22
-10.8802
-21.4851
-37.31
-47.3289
-47.9524
-33.1347
-10.4795
1.72747
2.63782
2.50059
2.2275
1.96
1.72146
1.51809
1.34939
1.21072
1.09656
1.00194
0.922692
0.855528
0.797879
0.747793
0.703783
0.664718
0.629721
0.598101
0.569302
0.542872
0.518436
0.495683
0.474352
0.454224
0.43512
0.416891
0.39941
0.382573
0.366292
0.350493
0.335114
0.320103
0.305415
0.291009
0.276852
0.262913
0.249169
0.235596
0.222177
0.208896
0.195736
0.182685
0.169729
0.156858
0.144062
0.131333
0.118663
0.106044
0.0934704
0.0809342
0.0684299
0.0559523
0.0434959
0.0310582
0.0186328
0.00621064
0.799788
0.765486
0.757867
0.767011
0.762309
0.747906
0.731624
0.712804
0.689729
0.66158
0.627462
0.586136
0.536487
0.476966
0.406505
0.320366
0.221026
0.111609
-0.00494387
-0.105948
-0.0626131
-5.23532
-19.5515
-30.0846
-31.3976
-29.6636
-32.1511
-37.6153
-47.1855
-49.2633
-40.5911
-18.4634
-0.534095
3.33463
2.99269
2.54963
2.21373
1.94377
1.71637
1.52524
1.36548
1.23208
1.12042
1.02645
0.946745
0.878481
0.819429
0.767834
0.72233
0.681845
0.64553
0.6127
0.582797
0.555359
0.530004
0.506411
0.484312
0.46348
0.44373