/*--------------------------------*- C++ -*----------------------------------*\
| =========                 |                                                 |
| \\      /  F ield         | OpenFOAM: The Open Source CFD Toolbox           |
|  \\    /   O peration     | Version:  v1806                                 |
|   \\  /    A nd           | Web:      www.OpenFOAM.com                      |
|    \\/     M anipulation  |                                                 |
\*---------------------------------------------------------------------------*/
FoamFile
{
    version     2.0;
    format      ascii;
    class       surfaceScalarField;
    location    "0.04";
    object      phi;
}
// * * * * * * * * * * * * * * * * * * * * * * * * * * * * * * * * * * * * * //

dimensions      [0 3 -1 0 0 0 0];
oriented        oriented;


internalField   nonuniform List<scalar> 
10650
(
0.00288867
0.000444659
0.00248426
0.000404417
0.00224284
0.000241413
0.00211506
0.000127781
0.00204769
6.73705e-05
0.00200855
3.91436e-05
0.00198368
2.48669e-05
0.00196688
1.68039e-05
0.00195492
1.19588e-05
0.00194609
8.82906e-06
0.00193944
6.65513e-06
0.00193438
5.05554e-06
0.00193055
3.83146e-06
0.00192768
2.86845e-06
0.00192559
2.08912e-06
0.00192414
1.45539e-06
0.0019232
9.35534e-07
0.00192269
5.0771e-07
0.00192252
1.67269e-07
0.00192261
-8.3868e-08
0.0019229
-2.90387e-07
0.00192331
-4.08434e-07
0.00192377
-4.608e-07
0.00192422
-4.4993e-07
0.00192459
-3.75668e-07
0.00192484
-2.45727e-07
0.00192491
-7.08128e-08
0.00192477
1.42393e-07
0.00192438
3.91774e-07
0.00192372
6.52819e-07
0.0019228
9.18639e-07
0.00192163
1.17862e-06
0.0019202
1.42145e-06
0.00191857
1.6315e-06
0.00191677
1.80345e-06
0.00191483
1.9381e-06
0.0019128
2.03113e-06
0.00191072
2.07944e-06
0.00190864
2.08324e-06
0.00190659
2.05097e-06
0.0019046
1.99024e-06
0.00190269
1.90406e-06
0.0019009
1.7952e-06
0.00189923
1.66931e-06
0.00189769
1.53514e-06
0.00189629
1.39908e-06
0.00189503
1.26301e-06
0.0018939
1.12743e-06
0.00189291
9.94165e-07
0.00189204
8.67474e-07
0.00189129
7.50952e-07
0.00189065
6.45259e-07
0.0018901
5.48467e-07
0.00188964
4.59243e-07
0.00188926
3.77395e-07
0.00188896
3.04201e-07
0.00188872
2.40844e-07
0.00188853
1.86902e-07
0.00188839
1.4058e-07
0.00188829
1.00006e-07
0.00188822
6.38887e-08
0.00188819
3.21256e-08
0.00188819
5.46368e-09
0.0018882
-1.37891e-08
0.00188823
-3.07287e-08
0.00188828
-4.40502e-08
0.00188833
-5.45349e-08
0.00188839
-6.3081e-08
0.00188846
-7.04955e-08
0.00188854
-7.59182e-08
0.00188862
-7.86068e-08
0.0018887
-8.00547e-08
0.00188878
-7.91767e-08
0.00188885
-7.76967e-08
0.00188893
-7.54395e-08
0.001889
-7.28414e-08
0.00188907
-7.04317e-08
0.00188914
-6.72093e-08
0.0018892
-6.37565e-08
0.00188926
-5.93943e-08
0.00188932
-5.44696e-08
0.00188937
-4.89112e-08
0.00188941
-4.31293e-08
0.00188945
-3.74842e-08
0.00188948
-3.19742e-08
0.00188951
-2.63803e-08
0.00188952
-1.93826e-08
0.00188954
-1.35608e-08
0.00188953
4.04075e-09
1.77841e-08
0.00346296
0.000315033
0.00347563
0.000391748
0.00342962
0.000287425
0.00337351
0.000183892
0.00332517
0.000115706
0.00328843
7.58861e-05
0.0032611
5.21906e-05
0.00324062
3.72866e-05
0.0032251
2.74799e-05
0.00321321
2.07206e-05
0.00320402
1.58476e-05
0.00319688
1.21951e-05
0.00319134
9.36486e-06
0.00318709
7.12199e-06
0.00318387
5.30404e-06
0.00318152
3.81195e-06
0.00317987
2.58479e-06
0.0031788
1.5723e-06
0.00317822
7.50815e-07
0.00317803
1.07163e-07
0.00317813
-3.95541e-07
0.00317844
-7.14827e-07
0.00317887
-8.9006e-07
0.00317934
-9.23146e-07
0.00317978
-8.17752e-07
0.00318012
-5.81754e-07
0.00318029
-2.38811e-07
0.00318024
1.94803e-07
0.00317992
7.05696e-07
0.00317931
1.2622e-06
0.0031784
1.83368e-06
0.00317718
2.39392e-06
0.00317568
2.92262e-06
0.00317392
3.39415e-06
0.00317193
3.78926e-06
0.00316977
4.09837e-06
0.00316749
4.3149e-06
0.00316513
4.43957e-06
0.00316274
4.47495e-06
0.00316036
4.42927e-06
0.00315804
4.31324e-06
0.0031558
4.13807e-06
0.00315368
3.91762e-06
0.00315169
3.66238e-06
0.00314984
3.3856e-06
0.00314814
3.0963e-06
0.0031466
2.80378e-06
0.00314521
2.51353e-06
0.00314398
2.23087e-06
0.00314288
1.96124e-06
0.00314192
1.70919e-06
0.00314109
1.47678e-06
0.00314038
1.26301e-06
0.00313977
1.06738e-06
0.00313926
8.8908e-07
0.00313883
7.29879e-07
0.00313848
5.90155e-07
0.0031382
4.68751e-07
0.00313798
3.62432e-07
0.00313781
2.69636e-07
0.00313769
1.88479e-07
0.0031376
1.18561e-07
0.00313755
5.94786e-08
0.00313752
1.11038e-08
0.00313752
-2.89992e-08
0.00313753
-6.08664e-08
0.00313757
-8.67629e-08
0.00313761
-1.08194e-07
0.00313767
-1.25812e-07
0.00313773
-1.37791e-07
0.0031378
-1.46508e-07
0.00313787
-1.51204e-07
0.00313794
-1.52623e-07
0.00313802
-1.51694e-07
0.00313809
-1.49075e-07
0.00313816
-1.45081e-07
0.00313823
-1.40398e-07
0.0031383
-1.34257e-07
0.00313836
-1.27244e-07
0.00313842
-1.18866e-07
0.00313848
-1.09365e-07
0.00313853
-9.90903e-08
0.00313857
-8.83447e-08
0.00313861
-7.73689e-08
0.00313864
-6.60992e-08
0.00313867
-5.46616e-08
0.00313869
-4.17567e-08
0.00313871
-3.10446e-08
0.00313872
-8.3835e-09
1.09887e-08
0.00344869
0.000199679
0.00353059
0.000309845
0.00355175
0.000266263
0.00353976
0.000195886
0.00351664
0.000138823
0.00349338
9.91471e-05
0.00347327
7.23001e-05
0.00345671
5.38417e-05
0.00344336
4.08337e-05
0.00343268
3.1401e-05
0.00342418
2.43522e-05
0.00341743
1.89405e-05
0.00341212
1.46724e-05
0.00340801
1.12393e-05
0.00340487
8.4347e-06
0.00340258
6.11131e-06
0.00340098
4.18154e-06
0.00339997
2.58232e-06
0.00339945
1.27281e-06
0.00339932
2.30053e-07
0.0033995
-5.73474e-07
0.0033999
-1.11697e-06
0.00340044
-1.42604e-06
0.00340102
-1.50494e-06
0.00340157
-1.36798e-06
0.00340202
-1.02871e-06
0.00340229
-5.06631e-07
0.00340232
1.64405e-07
0.00340206
9.58921e-07
0.0034015
1.8282e-06
0.0034006
2.72969e-06
0.00339937
3.62065e-06
0.00339784
4.45994e-06
0.00339602
5.21019e-06
0.00339397
5.84102e-06
0.00339173
6.33667e-06
0.00338936
6.68552e-06
0.00338691
6.88969e-06
0.00338443
6.95255e-06
0.00338198
6.88706e-06
0.00337958
6.70872e-06
0.00337728
6.4397e-06
0.0033751
6.09882e-06
0.00337306
5.70475e-06
0.00337117
5.27571e-06
0.00336943
4.82705e-06
0.00336787
4.37298e-06
0.00336646
3.92149e-06
0.0033652
3.48439e-06
0.0033641
3.0681e-06
0.00336313
2.67846e-06
0.00336229
2.31652e-06
0.00336157
1.98303e-06
0.00336096
1.67888e-06
0.00336044
1.40374e-06
0.00336001
1.15869e-06
0.00335966
9.42006e-07
0.00335938
7.51795e-07
0.00335916
5.84885e-07
0.00335899
4.39463e-07
0.00335886
3.13385e-07
0.00335877
2.04908e-07
0.00335872
1.13369e-07
0.00335869
3.72578e-08
0.00335869
-2.5682e-08
0.00335871
-7.74011e-08
0.00335874
-1.19205e-07
0.00335879
-1.53699e-07
0.00335884
-1.79999e-07
0.0033589
-1.99781e-07
0.00335897
-2.13761e-07
0.00335904
-2.2175e-07
0.00335911
-2.25539e-07
0.00335919
-2.25419e-07
0.00335926
-2.22464e-07
0.00335933
-2.17204e-07
0.0033594
-2.1021e-07
0.00335947
-2.0122e-07
0.00335953
-1.90437e-07
0.00335959
-1.77926e-07
0.00335965
-1.64132e-07
0.0033597
-1.49311e-07
0.00335974
-1.33707e-07
0.00335978
-1.17515e-07
0.00335981
-1.00841e-07
0.00335984
-8.39145e-08
0.00335987
-6.59472e-08
0.00335989
-4.90993e-08
0.0033599
-2.71609e-08
-7.37977e-09
0.00339723
0.000135781
0.00346631
0.00024077
0.00350154
0.000231035
0.00351007
0.000187353
0.00350467
0.000144221
0.00349397
0.000109852
0.00348218
8.40873e-05
0.00347107
6.4951e-05
0.00346129
5.06121e-05
0.00345299
3.97053e-05
0.00344609
3.12451e-05
0.00344047
2.45604e-05
0.00343597
1.91769e-05
0.00343244
1.47649e-05
0.00342977
1.11067e-05
0.00342784
8.04389e-06
0.00342655
5.47257e-06
0.00342581
3.32338e-06
0.00342553
1.54596e-06
0.00342565
1.1575e-07
0.00342606
-9.83234e-07
0.00342668
-1.74164e-06
0.00342743
-2.17805e-06
0.00342823
-2.30163e-06
0.00342898
-2.12025e-06
0.00342961
-1.6512e-06
0.00343003
-9.2562e-07
0.00343017
1.57649e-08
0.00343
1.13057e-06
0.00342947
2.35758e-06
0.00342857
3.63399e-06
0.00342729
4.89444e-06
0.00342568
6.07848e-06
0.00342375
7.13497e-06
0.00342157
8.02283e-06
0.00341919
8.71467e-06
0.00341668
9.19925e-06
0.00341409
9.47636e-06
0.00341149
9.55433e-06
0.00340892
9.45198e-06
0.00340644
9.19619e-06
0.00340406
8.8143e-06
0.00340183
8.33465e-06
0.00339975
7.78491e-06
0.00339783
7.18847e-06
0.00339609
6.56728e-06
0.00339453
5.93955e-06
0.00339313
5.32057e-06
0.00339189
4.72287e-06
0.0033908
4.15532e-06
0.00338986
3.62332e-06
0.00338905
3.12986e-06
0.00338835
2.67666e-06
0.00338777
2.2648e-06
0.00338728
1.89384e-06
0.00338687
1.56271e-06
0.00338654
1.27049e-06
0.00338628
1.01308e-06
0.00338608
7.87709e-07
0.00338593
5.91665e-07
0.00338582
4.22042e-07
0.00338575
2.76987e-07
0.0033857
1.54602e-07
0.00338569
5.21464e-08
0.0033857
-3.30605e-08
0.00338572
-1.02995e-07
0.00338576
-1.59676e-07
0.00338582
-2.05733e-07
0.00338588
-2.40319e-07
0.00338594
-2.66597e-07
0.00338601
-2.85076e-07
0.00338609
-2.96095e-07
0.00338616
-3.01653e-07
0.00338624
-3.01836e-07
0.00338632
-2.98437e-07
0.00338639
-2.91645e-07
0.00338646
-2.81984e-07
0.00338653
-2.69545e-07
0.00338659
-2.54798e-07
0.00338665
-2.38185e-07
0.00338671
-2.19939e-07
0.00338676
-2.00306e-07
0.00338681
-1.79548e-07
0.00338685
-1.58129e-07
0.00338688
-1.36138e-07
0.00338691
-1.138e-07
0.00338694
-9.07913e-08
0.00338696
-6.85445e-08
0.00338697
-4.44448e-08
-2.13344e-08
0.003369
0.00010011
0.00341818
0.000191592
0.00345195
0.000197261
0.00346823
0.000171082
0.00347261
0.000139837
0.00347046
0.000112005
0.00346527
8.92776e-05
0.00345901
7.1209e-05
0.00345273
5.68901e-05
0.00344694
4.54914e-05
0.00344187
3.63211e-05
0.00343758
2.88479e-05
0.00343408
2.26799e-05
0.00343132
1.75234e-05
0.00342925
1.31743e-05
0.00342781
9.48223e-06
0.00342695
6.33807e-06
0.00342659
3.68062e-06
0.00342667
1.46979e-06
0.00342711
-3.31472e-07
0.00342785
-1.72052e-06
0.0034288
-2.68825e-06
0.00342987
-3.24626e-06
0.00343097
-3.40248e-06
0.003432
-3.15403e-06
0.00343288
-2.53085e-06
0.00343352
-1.56424e-06
0.00343384
-3.01761e-07
0.00343377
1.1921e-06
0.00343329
2.84005e-06
0.00343237
4.55365e-06
0.00343102
6.24201e-06
0.00342928
7.82365e-06
0.00342719
9.22652e-06
0.00342481
1.03973e-05
0.00342223
1.1299e-05
0.00341951
1.19186e-05
0.00341673
1.22589e-05
0.00341395
1.23313e-05
0.00341123
1.21696e-05
0.00340862
1.18083e-05
0.00340615
1.12865e-05
0.00340384
1.06423e-05
0.00340172
9.91115e-06
0.00339978
9.12535e-06
0.00339803
8.31324e-06
0.00339647
7.49854e-06
0.00339509
6.70057e-06
0.00339388
5.93365e-06
0.00339283
5.20778e-06
0.00339192
4.52945e-06
0.00339115
3.90279e-06
0.0033905
3.32967e-06
0.00338995
2.81071e-06
0.0033895
2.34457e-06
0.00338913
1.93033e-06
0.00338884
1.56418e-06
0.00338861
1.24226e-06
0.00338844
9.6111e-07
0.00338831
7.17181e-07
0.00338823
5.07062e-07
0.00338818
3.27746e-07
0.00338816
1.7632e-07
0.00338816
4.96736e-08
0.00338818
-5.55344e-08
0.00338822
-1.41921e-07
0.00338827
-2.11621e-07
0.00338833
-2.67209e-07
0.0033884
-3.09852e-07
0.00338848
-3.41372e-07
0.00338855
-3.63628e-07
0.00338864
-3.76289e-07
0.00338872
-3.82495e-07
0.0033888
-3.82558e-07
0.00338888
-3.77925e-07
0.00338895
-3.68661e-07
0.00338903
-3.55903e-07
0.0033891
-3.39815e-07
0.00338916
-3.21172e-07
0.00338923
-3.0016e-07
0.00338928
-2.77045e-07
0.00338933
-2.52282e-07
0.00338938
-2.26298e-07
0.00338942
-1.99467e-07
0.00338946
-1.71986e-07
0.00338949
-1.44028e-07
0.00338951
-1.15658e-07
0.00338953
-8.80719e-08
0.00338955
-5.97518e-08
-3.15138e-08
0.00335501
7.84308e-05
0.00338988
0.000156727
0.00341839
0.000168746
0.00343617
0.000153306
0.00344502
0.000130987
0.00344789
0.000109137
0.00344722
8.99418e-05
0.00344469
7.37394e-05
0.00344135
6.0239e-05
0.00343782
4.9019e-05
0.00343448
3.96622e-05
0.00343152
3.18014e-05
0.00342906
2.51476e-05
0.00342711
1.9465e-05
0.00342572
1.45727e-05
0.00342485
1.035e-05
0.00342447
6.71103e-06
0.00342456
3.59488e-06
0.00342506
9.66121e-07
0.00342593
-1.19628e-06
0.00342707
-2.86464e-06
0.00342844
-4.05034e-06
0.00342991
-4.72031e-06
0.0034314
-4.89668e-06
0.00343282
-4.56732e-06
0.00343404
-3.75585e-06
0.00343497
-2.49621e-06
0.00343552
-8.48341e-07
0.00343561
1.10428e-06
0.00343519
3.25967e-06
0.00343424
5.49852e-06
0.00343279
7.69661e-06
0.00343087
9.74601e-06
0.00342854
1.15496e-05
0.0034259
1.30378e-05
0.00342304
1.41647e-05
0.00342004
1.49162e-05
0.003417
1.52995e-05
0.00341399
1.5341e-05
0.00341107
1.50863e-05
0.0034083
1.45809e-05
0.00340571
1.38811e-05
0.00340331
1.30357e-05
0.00340113
1.20908e-05
0.00339917
1.1088e-05
0.00339742
1.00623e-05
0.00339588
9.04269e-06
0.00339453
8.0511e-06
0.00339336
7.10389e-06
0.00339235
6.21232e-06
0.0033915
5.38376e-06
0.00339078
4.62216e-06
0.00339018
3.9291e-06
0.00338969
3.30428e-06
0.00338928
2.74573e-06
0.00338897
2.25006e-06
0.00338872
1.81314e-06
0.00338853
1.43016e-06
0.00338839
1.09701e-06
0.0033883
8.08964e-07
0.00338825
5.61579e-07
0.00338822
3.51129e-07
0.00338823
1.73647e-07
0.00338825
2.54047e-08
0.00338829
-9.73938e-08
0.00338835
-1.97538e-07
0.00338841
-2.77767e-07
0.00338849
-3.41342e-07
0.00338857
-3.90224e-07
0.00338865
-4.25366e-07
0.00338874
-4.49513e-07
0.00338883
-4.63722e-07
0.00338891
-4.69841e-07
0.003389
-4.68825e-07
0.00338908
-4.6176e-07
0.00338916
-4.49477e-07
0.00338924
-4.33136e-07
0.00338931
-4.12927e-07
0.00338938
-3.89722e-07
0.00338945
-3.63799e-07
0.0033895
-3.35482e-07
0.00338956
-3.05461e-07
0.0033896
-2.74075e-07
0.00338965
-2.41571e-07
0.00338968
-2.08238e-07
0.00338971
-1.74554e-07
0.00338974
-1.40523e-07
0.00338976
-1.07259e-07
0.00338977
-7.34909e-08
-3.90555e-08
0.00334768
6.40854e-05
0.00337305
0.000131353
0.00339623
0.000145567
0.00341295
0.000136593
0.00342333
0.000120602
0.00342884
0.000103626
0.00343102
8.77604e-05
0.00343112
7.36396e-05
0.00343004
6.1326e-05
0.00342838
5.0677e-05
0.00342655
4.14916e-05
0.00342481
3.35442e-05
0.00342332
2.66313e-05
0.0034222
2.05905e-05
0.00342148
1.52913e-05
0.00342119
1.06349e-05
0.00342135
6.55402e-06
0.00342194
3.00796e-06
0.00342293
-2.33658e-08
0.00342427
-2.53956e-06
0.00342592
-4.51107e-06
0.00342776
-5.89389e-06
0.00342975
-6.70623e-06
0.00343174
-6.89437e-06
0.00343364
-6.46641e-06
0.00343531
-5.42762e-06
0.00343663
-3.81348e-06
0.00343748
-1.69498e-06
0.00343776
8.21533e-07
0.00343742
3.59959e-06
0.00343644
6.48154e-06
0.00343483
9.30184e-06
0.00343267
1.1913e-05
0.00343003
1.4188e-05
0.00342703
1.60361e-05
0.00342379
1.74028e-05
0.00342043
1.82766e-05
0.00341705
1.86762e-05
0.00341375
1.86464e-05
0.00341059
1.82497e-05
0.00340762
1.75489e-05
0.00340488
1.66204e-05
0.00340239
1.55269e-05
0.00340015
1.43277e-05
0.00339817
1.30737e-05
0.00339642
1.18067e-05
0.0033949
1.05599e-05
0.0033936
9.35807e-06
0.00339248
8.21896e-06
0.00339154
7.15423e-06
0.00339075
6.17125e-06
0.0033901
5.27353e-06
0.00338957
4.46139e-06
0.00338914
3.73269e-06
0.0033888
3.08408e-06
0.00338854
2.51101e-06
0.00338835
2.00785e-06
0.00338821
1.56856e-06
0.00338812
1.18757e-06
0.00338807
8.59656e-07
0.00338805
5.79453e-07
0.00338806
3.41875e-07
0.00338809
1.42145e-07
0.00338814
-2.40864e-08
0.0033882
-1.61216e-07
0.00338828
-2.73615e-07
0.00338836
-3.61316e-07
0.00338845
-4.30938e-07
0.00338855
-4.83421e-07
0.00338864
-5.20899e-07
0.00338874
-5.45691e-07
0.00338883
-5.59674e-07
0.00338893
-5.64187e-07
0.00338902
-5.60811e-07
0.00338911
-5.50652e-07
0.00338919
-5.34858e-07
0.00338927
-5.14144e-07
0.00338935
-4.89226e-07
0.00338942
-4.6083e-07
0.00338949
-4.29529e-07
0.00338955
-3.95838e-07
0.0033896
-3.60091e-07
0.00338965
-3.22818e-07
0.00338969
-2.8437e-07
0.00338973
-2.45055e-07
0.00338976
-2.05365e-07
0.00338979
-1.65355e-07
0.0033898
-1.25977e-07
0.00338982
-8.5968e-08
-4.47763e-08
0.0033435
5.3922e-05
0.00336253
0.000112322
0.00338123
0.000126865
0.00339605
0.000121773
0.00340648
0.000110171
0.00341315
9.69593e-05
0.00341697
8.3939e-05
0.00341881
7.17998e-05
0.00341936
6.07794e-05
0.00341913
5.08979e-05
0.00341854
4.20858e-05
0.00341785
3.42373e-05
0.00341724
2.72351e-05
0.00341686
2.09729e-05
0.00341679
1.53616e-05
0.00341709
1.03348e-05
0.00341779
5.85175e-06
0.00341891
1.89522e-06
0.00342043
-1.54537e-06
0.00342231
-4.42632e-06
0.0034245
-6.70092e-06
0.00342696
-8.34848e-06
0.00342955
-9.2995e-06
0.00343218
-9.51842e-06
0.00343469
-8.97806e-06
0.00343693
-7.67149e-06
0.00343875
-5.62866e-06
0.00343999
-2.9326e-06
0.00344052
2.83626e-07
0.00344028
3.83961e-06
0.00343924
7.52912e-06
0.00343742
1.11178e-05
0.00343492
1.44159e-05
0.00343185
1.72513e-05
0.00342838
1.95089e-05
0.00342466
2.11276e-05
0.00342083
2.21048e-05
0.00341703
2.24786e-05
0.00341335
2.23175e-05
0.00340989
2.17092e-05
0.0034067
2.07462e-05
0.00340379
1.95234e-05
0.0034012
1.81235e-05
0.00339891
1.66197e-05
0.00339691
1.5073e-05
0.00339518
1.3532e-05
0.00339371
1.20334e-05
0.00339246
1.06033e-05
0.00339142
9.2599e-06
0.00339056
8.01501e-06
0.00338986
6.87462e-06
0.00338929
5.84031e-06
0.00338884
4.91065e-06
0.00338849
4.0816e-06
0.00338823
3.34789e-06
0.00338804
2.70236e-06
0.00338791
2.13823e-06
0.00338783
1.64822e-06
0.00338779
1.22544e-06
0.00338779
8.63017e-07
0.00338781
5.54699e-07
0.00338786
2.94656e-07
0.00338792
7.71072e-08
0.003388
-1.03673e-07
0.00338809
-2.51776e-07
0.00338819
-3.70714e-07
0.00338829
-4.64635e-07
0.0033884
-5.37163e-07
0.00338851
-5.91289e-07
0.00338862
-6.29333e-07
0.00338872
-6.53096e-07
0.00338883
-6.6496e-07
0.00338893
-6.66555e-07
0.00338903
-6.59672e-07
0.00338912
-6.454e-07
0.00338921
-6.25039e-07
0.0033893
-5.99081e-07
0.00338938
-5.68833e-07
0.00338945
-5.34883e-07
0.00338952
-4.97829e-07
0.00338958
-4.58163e-07
0.00338964
-4.16256e-07
0.00338969
-3.72738e-07
0.00338973
-3.28035e-07
0.00338977
-2.82536e-07
0.0033898
-2.36539e-07
0.00338983
-1.90086e-07
0.00338984
-1.44105e-07
0.00338986
-9.74478e-08
-4.91941e-08
0.0033409
4.63568e-05
0.00335559
9.76346e-05
0.00337074
0.000111711
0.00338354
0.000108969
0.00339333
0.000100385
0.00340029
8.99959e-05
0.00340493
7.92977e-05
0.00340782
6.89149e-05
0.00340947
5.91316e-05
0.0034103
5.00618e-05
0.00341066
4.17239e-05
0.00341081
3.40884e-05
0.00341095
2.71004e-05
0.00341122
2.07005e-05
0.00341174
1.48394e-05
0.00341259
9.48398e-06
0.00341383
4.61869e-06
0.00341548
2.42432e-07
0.00341756
-3.62112e-06
0.00342003
-6.89714e-06
0.00342288
-9.5506e-06
0.00342601
-1.14805e-05
0.00342934
-1.26277e-05
0.00343273
-1.29092e-05
0.00343601
-1.22572e-05
0.00343898
-1.06449e-05
0.00344144
-8.08988e-06
0.00344319
-4.68123e-06
0.00344406
-5.85222e-07
0.00344394
3.96073e-06
0.0034428
8.66861e-06
0.00344068
1.32348e-05
0.00343772
1.73802e-05
0.00343408
2.08873e-05
0.00342998
2.36106e-05
0.00342562
2.54858e-05
0.0034212
2.65286e-05
0.00341686
2.68117e-05
0.00341275
2.64307e-05
0.00340894
2.55186e-05
0.00340549
2.42024e-05
0.00340241
2.26026e-05
0.00339971
2.08242e-05
0.00339737
1.89561e-05
0.00339537
1.70689e-05
0.00339369
1.52167e-05
0.00339228
1.34388e-05
0.00339112
1.17621e-05
0.00339018
1.02035e-05
0.00338942
8.77254e-06
0.00338883
7.47266e-06
0.00338836
6.30325e-06
0.00338801
5.26017e-06
0.00338776
4.33635e-06
0.00338758
3.52336e-06
0.00338747
2.81228e-06
0.00338742
2.1943e-06
0.0033874
1.66062e-06
0.00338743
1.20271e-06
0.00338748
8.12514e-07
0.00338755
4.82418e-07
0.00338764
2.05339e-07
0.00338774
-2.52776e-08
0.00338785
-2.1568e-07
0.00338797
-3.71477e-07
0.0033881
-4.9282e-07
0.00338822
-5.89347e-07
0.00338835
-6.62491e-07
0.00338847
-7.1552e-07
0.00338859
-7.5122e-07
0.00338871
-7.72187e-07
0.00338883
-7.80293e-07
0.00338894
-7.77841e-07
0.00338904
-7.6606e-07
0.00338914
-7.46461e-07
0.00338924
-7.20194e-07
0.00338933
-6.88391e-07
0.00338941
-6.52242e-07
0.00338949
-6.12069e-07
0.00338956
-5.68665e-07
0.00338962
-5.22434e-07
0.00338968
-4.74001e-07
0.00338973
-4.23967e-07
0.00338978
-3.72775e-07
0.00338982
-3.2069e-07
0.00338985
-2.67977e-07
0.00338987
-2.14696e-07
0.00338989
-1.61791e-07
0.0033899
-1.0822e-07
-5.26793e-08
0.00333916
4.0534e-05
0.00335075
8.60405e-05
0.00336314
9.93257e-05
0.00337409
9.80098e-05
0.00338296
9.15208e-05
0.00338972
8.32361e-05
0.00339464
7.43751e-05
0.00339809
6.54707e-05
0.00340042
5.68001e-05
0.00340197
4.85128e-05
0.00340302
4.06745e-05
0.0034038
3.32996e-05
0.00340453
2.63767e-05
0.00340534
1.98858e-05
0.00340637
1.38094e-05
0.00340772
8.14076e-06
0.00340945
2.88888e-06
0.00341163
-1.93774e-06
0.00341428
-6.27838e-06
0.00341739
-1.00068e-05
0.00342094
-1.30962e-05
0.00342487
-1.54123e-05
0.00342907
-1.68326e-05
0.0034334
-1.72316e-05
0.00343764
-1.64969e-05
0.00344155
-1.45541e-05
0.00344485
-1.13939e-05
0.00344727
-7.10427e-06
0.00344858
-1.89013e-06
0.00344861
3.93314e-06
0.00344731
9.96169e-06
0.00344478
1.57707e-05
0.00344118
2.09808e-05
0.00343677
2.52967e-05
0.00343183
2.8548e-05
0.00342665
3.06667e-05
0.00342147
3.17095e-05
0.00341649
3.17885e-05
0.00341185
3.1072e-05
0.00340764
2.97279e-05
0.0034039
2.79408e-05
0.00340064
2.58608e-05
0.00339785
2.36172e-05
0.00339549
2.13144e-05
0.00339353
1.90322e-05
0.00339192
1.68292e-05
0.00339061
1.47447e-05
0.00338957
1.28037e-05
0.00338875
1.10199e-05
0.00338813
9.39942e-06
0.00338766
7.94185e-06
0.00338732
6.64199e-06
0.00338709
5.49148e-06
0.00338695
4.48017e-06
0.00338687
3.59676e-06
0.00338686
2.82929e-06
0.00338688
2.16643e-06
0.00338695
1.59758e-06
0.00338704
1.11264e-06
0.00338715
7.01959e-07
0.00338727
3.56611e-07
0.00338741
6.86916e-08
0.00338755
-1.6924e-07
0.0033877
-3.6337e-07
0.00338785
-5.19834e-07
0.003388
-6.4267e-07
0.00338815
-7.38072e-07
0.00338829
-8.07862e-07
0.00338843
-8.57022e-07
0.00338857
-8.88131e-07
0.0033887
-9.03964e-07
0.00338883
-9.06705e-07
0.00338895
-8.98236e-07
0.00338906
-8.80145e-07
0.00338917
-8.53966e-07
0.00338927
-8.21085e-07
0.00338937
-7.82661e-07
0.00338945
-7.39594e-07
0.00338953
-6.92485e-07
0.00338961
-6.42024e-07
0.00338967
-5.88751e-07
0.00338973
-5.33452e-07
0.00338978
-4.76598e-07
0.00338983
-4.18529e-07
0.00338987
-3.59445e-07
0.0033899
-2.99691e-07
0.00338993
-2.39341e-07
0.00338994
-1.79275e-07
0.00338995
-1.18558e-07
-5.55029e-08
0.00333791
3.59535e-05
0.00334724
7.67126e-05
0.00335745
8.91151e-05
0.00336678
8.86786e-05
0.00337465
8.36555e-05
0.00338095
7.6933e-05
0.00338582
6.95074e-05
0.00338947
6.1819e-05
0.00339216
5.41126e-05
0.00339414
4.6536e-05
0.00339564
3.91728e-05
0.00339687
3.20634e-05
0.00339803
2.52234e-05
0.00339925
1.86581e-05
0.00340069
1.2372e-05
0.00340246
6.37762e-06
0.00340464
7.00976e-07
0.00340732
-4.61393e-06
0.00341052
-9.4793e-06
0.0034143
-1.37881e-05
0.00341863
-1.74292e-05
0.00342347
-2.02503e-05
0.0034287
-2.20648e-05
0.00343416
-2.26914e-05
0.00343961
-2.19437e-05
0.00344473
-1.96727e-05
0.00344915
-1.58124e-05
0.00345248
-1.04317e-05
0.00345436
-3.77748e-06
0.00345457
3.72164e-06
0.00345305
1.14828e-05
0.00344992
1.89041e-05
0.00344543
2.54702e-05
0.00343997
3.0757e-05
0.00343392
3.45993e-05
0.00342767
3.69128e-05
0.00342155
3.78351e-05
0.00341578
3.7556e-05
0.00341053
3.63221e-05
0.00340588
3.43803e-05
0.00340185
3.19714e-05
0.00339842
2.9284e-05
0.00339557
2.64727e-05
0.00339323
2.36562e-05
0.00339134
2.09208e-05
0.00338984
1.83259e-05
0.00338868
1.59085e-05
0.00338779
1.36888e-05
0.00338714
1.16748e-05
0.00338667
9.86548e-06
0.00338636
8.25461e-06
0.00338617
6.83199e-06
0.00338608
5.58425e-06
0.00338606
4.49662e-06
0.0033861
3.55384e-06
0.00338619
2.74098e-06
0.00338631
2.04424e-06
0.00338646
1.45076e-06
0.00338662
9.48436e-07
0.0033868
5.26095e-07
0.00338698
1.73634e-07
0.00338717
-1.18023e-07
0.00338736
-3.56562e-07
0.00338754
-5.49201e-07
0.00338773
-7.02647e-07
0.0033879
-8.20886e-07
0.00338808
-9.10233e-07
0.00338824
-9.7445e-07
0.0033884
-1.01652e-06
0.00338855
-1.04073e-06
0.0033887
-1.04917e-06
0.00338884
-1.04425e-06
0.00338897
-1.02794e-06
0.00338909
-1.00211e-06
0.0033892
-9.68273e-07
0.00338931
-9.27838e-07
0.00338941
-8.81744e-07
0.0033895
-8.30903e-07
0.00338958
-7.7612e-07
0.00338966
-7.17959e-07
0.00338973
-6.57359e-07
0.00338979
-5.94749e-07
0.00338984
-5.30588e-07
0.00338989
-4.65193e-07
0.00338993
-3.9883e-07
0.00338996
-3.31791e-07
0.00338999
-2.64204e-07
0.00339
-1.96743e-07
0.00339001
-1.28643e-07
-5.78613e-08
0.00333698
3.23072e-05
0.00334458
6.91139e-05
0.00335305
8.06418e-05
0.00336098
8.07473e-05
0.00336787
7.67645e-05
0.0033736
7.12086e-05
0.0033782
6.49057e-05
0.00338181
5.8207e-05
0.00338461
5.13147e-05
0.00338679
4.43598e-05
0.00338853
3.74262e-05
0.00339003
3.05637e-05
0.00339146
2.38005e-05
0.00339296
1.71541e-05
0.00339469
1.06423e-05
0.00339677
4.29209e-06
0.00339934
-1.85986e-06
0.00340245
-7.73304e-06
0.00340621
-1.32384e-05
0.00341067
-1.82453e-05
0.00341584
-2.25987e-05
0.00342168
-2.60956e-05
0.00342812
-2.84978e-05
0.00343496
-2.95343e-05
0.00344193
-2.89149e-05
0.00344863
-2.63722e-05
0.00345455
-2.17298e-05
0.00345912
-1.5e-05
0.00346181
-6.46919e-06
0.00346225
3.27833e-06
0.00346038
1.33582e-05
0.00345638
2.29023e-05
0.00345064
3.12057e-05
0.00344374
3.76651e-05
0.00343621
4.21208e-05
0.00342859
4.45416e-05
0.00342127
4.51467e-05
0.00341456
4.42676e-05
0.00340862
4.22626e-05
0.0034035
3.95015e-05
0.00339919
3.62799e-05
0.00339564
3.2833e-05
0.00339278
2.93381e-05
0.00339051
2.59222e-05
0.00338876
2.26739e-05
0.00338744
1.96493e-05
0.00338647
1.6878e-05
0.00338578
1.43707e-05
0.00338533
1.21258e-05
0.00338506
1.01339e-05
0.00338494
8.3808e-06
0.00338492
6.84858e-06
0.00338499
5.51764e-06
0.00338512
4.36826e-06
0.00338529
3.38088e-06
0.00338549
2.53688e-06
0.00338572
1.8193e-06
0.00338596
1.21299e-06
0.0033862
7.04159e-07
0.00338645
2.80165e-07
0.00338669
-7.05491e-08
0.00338693
-3.58016e-07
0.00338716
-5.89877e-07
0.00338739
-7.74996e-07
0.00338761
-9.19053e-07
0.00338781
-1.02842e-06
0.00338801
-1.10832e-06
0.0033882
-1.16222e-06
0.00338838
-1.19489e-06
0.00338855
-1.20901e-06
0.0033887
-1.20764e-06
0.00338885
-1.19293e-06
0.00338899
-1.16725e-06
0.00338912
-1.13221e-06
0.00338924
-1.08947e-06
0.00338936
-1.04016e-06
0.00338946
-9.85359e-07
0.00338955
-9.25988e-07
0.00338964
-8.62827e-07
0.00338972
-7.96686e-07
0.00338979
-7.28162e-07
0.00338985
-6.57747e-07
0.00338991
-5.85844e-07
0.00338996
-5.12842e-07
0.00339
-4.3891e-07
0.00339003
-3.64406e-07
0.00339005
-2.89348e-07
0.00339007
-2.14264e-07
0.00339008
-1.38528e-07
-5.99305e-08
0.00333624
2.93982e-05
0.00334248
6.28792e-05
0.00334954
7.35768e-05
0.00335628
7.40138e-05
0.00336225
7.0787e-05
0.00336734
6.61171e-05
0.00337155
6.06967e-05
0.00337496
5.4802e-05
0.00337768
4.85912e-05
0.00337987
4.21721e-05
0.00338168
3.56174e-05
0.00338327
2.89725e-05
0.00338481
2.22657e-05
0.00338644
1.55173e-05
0.00338833
8.75028e-06
0.00339063
1.99864e-06
0.00339346
-4.68949e-06
0.00339695
-1.12249e-05
0.00340121
-1.75009e-05
0.00340633
-2.33675e-05
0.00341237
-2.86322e-05
0.00341932
-3.30517e-05
0.00342714
-3.63138e-05
0.00343565
-3.80492e-05
0.00344456
-3.78183e-05
0.00345335
-3.51619e-05
0.00346132
-2.97036e-05
0.00346764
-2.13167e-05
0.00347148
-1.03142e-05
0.00347221
2.55217e-06
0.00346978
1.57881e-05
0.00346451
2.81664e-05
0.00345703
3.86928e-05
0.00344812
4.65766e-05
0.0034386
5.16397e-05
0.00342918
5.39551e-05
0.00342041
5.39219e-05
0.0034126
5.20735e-05
0.0034059
4.89599e-05
0.00340032
4.50856e-05
0.00339578
4.08169e-05
0.00339218
3.64331e-05
0.00338939
3.21274e-05
0.00338729
2.80271e-05
0.00338575
2.42117e-05
0.00338468
2.07259e-05
0.00338397
1.7587e-05
0.00338354
1.47921e-05
0.00338334
1.23257e-05
0.00338331
1.0166e-05
0.00338341
8.28795e-06
0.00338359
6.66498e-06
0.00338384
5.27034e-06
0.00338413
4.07819e-06
0.00338444
3.06418e-06
0.00338477
2.20589e-06
0.00338511
1.48324e-06
0.00338545
8.78445e-07
0.00338577
3.75738e-07
0.00338609
-3.90553e-08
0.0033864
-3.78733e-07
0.0033867
-6.54568e-07
0.00338698
-8.69574e-07
0.00338724
-1.04066e-06
0.0033875
-1.17073e-06
0.00338773
-1.2661e-06
0.00338796
-1.3317e-06
0.00338817
-1.37245e-06
0.00338836
-1.39157e-06
0.00338855
-1.39298e-06
0.00338872
-1.3792e-06
0.00338888
-1.35292e-06
0.00338903
-1.31614e-06
0.00338916
-1.27038e-06
0.00338929
-1.21718e-06
0.00338941
-1.15785e-06
0.00338952
-1.09338e-06
0.00338962
-1.02472e-06
0.00338971
-9.5267e-07
0.00338979
-8.77878e-07
0.00338986
-8.00903e-07
0.00338992
-7.2226e-07
0.00338998
-6.42321e-07
0.00339003
-5.61411e-07
0.00339007
-4.79746e-07
0.0033901
-3.97507e-07
0.00339013
-3.14715e-07
0.00339015
-2.31813e-07
0.00339016
-1.48342e-07
-6.18592e-08
0.00333564
2.70919e-05
0.00334077
5.77455e-05
0.00334667
6.76757e-05
0.00335237
6.83152e-05
0.00335751
6.56526e-05
0.00336196
6.16699e-05
0.0033657
5.69536e-05
0.00336878
5.1719e-05
0.00337129
4.60842e-05
0.00337333
4.01291e-05
0.00337504
3.39069e-05
0.00337656
2.74495e-05
0.00337805
2.07759e-05
0.00337967
1.39008e-05
0.00338158
6.84373e-06
0.00338394
-3.61072e-07
0.00338691
-7.66731e-06
0.00339067
-1.49802e-05
0.00339535
-2.21784e-05
0.00340108
-2.90999e-05
0.00340797
-3.55244e-05
0.0034161
-4.11837e-05
0.00342548
-4.56865e-05
0.00343599
-4.85627e-05
0.00344734
-4.91699e-05
0.00345893
-4.67501e-05
0.00346979
-4.05612e-05
0.00347864
-3.0166e-05
0.00348412
-1.57927e-05
0.00348531
1.35686e-06
0.00348199
1.91086e-05
0.00347483
3.53223e-05
0.0034648
4.87265e-05
0.00345309
5.82895e-05
0.00344086
6.38725e-05
0.00342915
6.56616e-05
0.00341861
6.446e-05
0.00340957
6.11119e-05
0.0034021
5.64323e-05
0.00339611
5.10724e-05
0.00339145
4.54802e-05
0.00338792
3.99648e-05
0.00338533
3.47186e-05
0.0033835
2.98533e-05
0.00338229
2.54269e-05
0.00338155
2.14628e-05
0.00338118
1.79577e-05
0.00338108
1.48882e-05
0.00338119
1.22207e-05
0.00338144
9.91774e-06
0.00338178
7.94133e-06
0.00338219
6.25429e-06
0.00338264
4.82153e-06
0.00338311
3.61041e-06
0.00338358
2.59157e-06
0.00338405
1.73885e-06
0.0033845
1.02904e-06
0.00338494
4.4173e-07
0.00338536
-4.07503e-08
0.00338575
-4.34543e-07
0.00338613
-7.54273e-07
0.00338648
-1.00249e-06
0.0033868
-1.19825e-06
0.00338711
-1.34796e-06
0.0033874
-1.45751e-06
0.00338767
-1.53309e-06
0.00338791
-1.58055e-06
0.00338815
-1.60358e-06
0.00338836
-1.60631e-06
0.00338856
-1.59202e-06
0.00338874
-1.56369e-06
0.00338891
-1.52357e-06
0.00338907
-1.47422e-06
0.00338922
-1.41573e-06
0.00338935
-1.351e-06
0.00338947
-1.28055e-06
0.00338959
-1.2056e-06
0.00338969
-1.12695e-06
0.00338978
-1.04529e-06
0.00338986
-9.61218e-07
0.00338994
-8.75403e-07
0.00339
-7.88143e-07
0.00339006
-6.99888e-07
0.00339011
-6.10837e-07
0.00339015
-5.21163e-07
0.00339019
-4.30929e-07
0.00339021
-3.40273e-07
0.00339023
-2.49432e-07
0.00339024
-1.58211e-07
-6.38117e-08
0.00333513