/*--------------------------------*- C++ -*----------------------------------*\
| =========                 |                                                 |
| \\      /  F ield         | OpenFOAM: The Open Source CFD Toolbox           |
|  \\    /   O peration     | Version:  v1806                                 |
|   \\  /    A nd           | Web:      www.OpenFOAM.com                      |
|    \\/     M anipulation  |                                                 |
\*---------------------------------------------------------------------------*/
FoamFile
{
    version     2.0;
    format      ascii;
    class       volVectorField;
    location    "0.04";
    object      U;
}
// * * * * * * * * * * * * * * * * * * * * * * * * * * * * * * * * * * * * * //

dimensions      [0 1 -1 0 0 0 0];


internalField   nonuniform List<vector> 
5400
(
(0.827586 0.0889938 0)
(0.810137 0.0803599 0)
(0.717371 0.045046 0)
(0.649417 0.0219673 0)
(0.621328 0.0107419 0)
(0.607664 0.00590538 0)
(0.59856 0.00361241 0)
(0.592371 0.00237498 0)
(0.588126 0.00165985 0)
(0.585059 0.00121191 0)
(0.582765 0.00090607 0)
(0.581026 0.000682381 0)
(0.579704 0.000512014 0)
(0.578706 0.000377997 0)
(0.577968 0.000269594 -3.69538e-36)
(0.577439 0.000181937 3.69538e-36)
(0.577085 0.000109423 0)
(0.576871 5.02152e-05 0)
(0.57677 3.66907e-06 0)
(0.576761 -3.39131e-05 0)
(0.576819 -5.86122e-05 0)
(0.576923 -7.11236e-05 0)
(0.577057 -7.53445e-05 0)
(0.577195 -7.11596e-05 0)
(0.577318 -5.67422e-05 0)
(0.577414 -3.47794e-05 0)
(0.577463 -7.28344e-06 0)
(0.577452 2.68436e-05 0)
(0.577373 6.56586e-05 0)
(0.577219 0.000105402 0)
(0.576983 0.000144183 0)
(0.576667 0.000182732 0)
(0.576278 0.000219181 0)
(0.575822 0.000250089 0)
(0.575306 0.000274187 0)
(0.574742 0.00029259 0)
(0.574147 0.000305683 0)
(0.573532 0.000312078 0)
(0.572907 0.000311337 0)
(0.572284 0.000305018 0)
(0.571677 0.000294918 0)
(0.571093 0.000281603 0)
(0.570539 0.000264953 0)
(0.570019 0.000245523 0)
(0.569536 0.000224793 0)
(0.569095 0.000204061 0)
(0.568697 0.000183784 0)
(0.56834 0.000163731 0)
(0.568021 0.000143873 0)
(0.567741 0.000124806 0)
(0.567497 0.000107327 0)
(0.567288 9.17573e-05 0)
(0.56711 7.77482e-05 0)
(0.56696 6.48022e-05 0)
(0.566834 5.27429e-05 0)
(0.566731 4.18694e-05 0)
(0.566649 3.25537e-05 0)
(0.566585 2.47835e-05 0)
(0.566536 1.81964e-05 0)
(0.566501 1.2436e-05 0)
(0.566477 7.24589e-06 0)
(0.566462 2.59198e-06 0)
(0.566456 -1.40697e-06 0)
(0.566457 -4.69028e-06 0)
(0.566464 -6.86231e-06 0)
(0.566475 -8.34904e-06 0)
(0.566491 -9.59855e-06 0)
(0.566509 -1.0748e-05 0)
(0.566529 -1.1705e-05 0)
(0.56655 -1.23578e-05 0)
(0.566573 -1.27684e-05 0)
(0.566597 -1.27858e-05 0)
(0.566621 -1.25799e-05 0)
(0.566645 -1.21759e-05 0)
(0.566668 -1.17211e-05 0)
(0.56669 -1.12749e-05 0)
(0.566712 -1.08184e-05 0)
(0.566732 -1.03549e-05 0)
(0.566751 -9.81049e-06 0)
(0.56677 -9.1722e-06 0)
(0.566787 -8.39103e-06 0)
(0.566802 -7.5003e-06 0)
(0.566816 -6.56629e-06 0)
(0.566829 -5.65067e-06 0)
(0.566839 -4.77297e-06 0)
(0.566848 -3.8887e-06 0)
(0.566855 -2.74174e-06 0)
(0.56686 -1.60661e-06 0)
(0.566867 2.45803e-06 0)
(0.56685 5.223e-06 0)
(0.964078 0.134298 0)
(1.0553 0.140758 0)
(1.05427 0.091912 0)
(1.01984 0.0525051 0)
(1.00212 0.0298166 0)
(0.991591 0.0181869 0)
(0.982322 0.0119094 0)
(0.97504 0.00822021 0)
(0.969672 0.00592319 0)
(0.965617 0.00440332 0)
(0.962488 0.00333536 0)
(0.960062 0.00254582 0)
(0.958177 0.00194012 0)
(0.956719 0.0014634 0)
(0.955609 0.00107741 0)
(0.954777 0.000762921 0)
(0.954181 0.000505113 0)
(0.95378 0.000291957 0)
(0.953534 0.000121345 0)
(0.953421 -1.19152e-05 0)
(0.953412 -0.000110157 0)
(0.953474 -0.000173995 0)
(0.953587 -0.000204275 0)
(0.953726 -0.000205497 0)
(0.953863 -0.000177644 0)
(0.953982 -0.000121398 0)
(0.954061 -4.1584e-05 0)
(0.954079 5.70257e-05 0)
(0.954025 0.000170287 0)
(0.953889 0.0002926 0)
(0.953662 0.000417764 0)
(0.953342 0.000540481 0)
(0.952935 0.000654892 0)
(0.952447 0.000755657 0)
(0.951884 0.000839423 0)
(0.951261 0.000904721 0)
(0.950594 0.000950314 0)
(0.949898 0.000975021 0)
(0.949184 0.000979632 0)
(0.948466 0.000967024 0)
(0.94776 0.000940154 0)
(0.947077 0.000901 0)
(0.946423 0.000851152 0)
(0.945804 0.000793458 0)
(0.945226 0.000731547 0)
(0.944693 0.00066815 0)
(0.944209 0.000604424 0)
(0.943771 0.00054075 0)
(0.943376 0.000478305 0)
(0.943025 0.000418929 0)
(0.942717 0.00036401 0)
(0.942449 0.000313777 0)
(0.942219 0.000267673 0)
(0.942021 0.00022518 0)
(0.941853 0.000186379 0)
(0.94171 0.000151698 0)
(0.941594 0.000121425 0)
(0.9415 9.53913e-05 0)
(0.941426 7.29004e-05 0)
(0.941368 5.3195e-05 0)
(0.941324 3.57697e-05 0)
(0.941292 2.0541e-05 0)
(0.94127 7.67325e-06 0)
(0.941258 -2.79743e-06 0)
(0.941254 -1.08127e-05 0)
(0.941257 -1.71283e-05 0)
(0.941266 -2.23853e-05 0)
(0.941278 -2.68386e-05 0)
(0.941292 -3.0349e-05 0)
(0.941309 -3.29741e-05 0)
(0.941328 -3.46446e-05 0)
(0.941349 -3.53545e-05 0)
(0.941371 -3.53657e-05 0)
(0.941393 -3.48391e-05 0)
(0.941416 -3.40136e-05 0)
(0.941438 -3.30186e-05 0)
(0.941459 -3.18474e-05 0)
(0.941479 -3.05217e-05 0)
(0.941498 -2.89172e-05 0)
(0.941517 -2.69994e-05 0)
(0.941534 -2.47656e-05 0)
(0.94155 -2.23149e-05 0)
(0.941564 -1.97813e-05 0)
(0.941577 -1.72489e-05 0)
(0.941589 -1.47219e-05 0)
(0.941598 -1.21516e-05 0)
(0.941606 -9.06368e-06 0)
(0.941614 -6.6365e-06 0)
(0.941614 4.44667e-07 0)
(0.941617 6.27153e-06 0)
(0.966083 0.0738143 0)
(1.05895 0.103637 0)
(1.08091 0.0834473 0)
(1.06399 0.0579853 0)
(1.0564 0.0391521 0)
(1.05147 0.0269591 0)
(1.04512 0.0191234 0)
(1.03939 0.0139458 0)
(1.03488 0.0104167 0)
(1.03131 0.00792317 0)
(1.02845 0.00609633 0)
(1.02618 0.00471353 0)
(1.02438 0.00363396 0)
(1.02298 0.00277408 0)
(1.0219 0.00207456 0)
(1.02109 0.00149742 0)
(1.02051 0.00102281 0)
(1.02012 0.000630168 0)
(1.01989 0.000308384 0)
(1.0198 5.60855e-05 0)
(1.01981 -0.00013364 0)
(1.0199 -0.000266083 0)
(1.02004 -0.000339828 0)
(1.02021 -0.000357297 0)
(1.02038 -0.000321546 0)
(1.02054 -0.000235712 0)
(1.02065 -0.000106057 0)
(1.02069 5.95728e-05 0)
(1.02066 0.000253523 0)
(1.02054 0.000466768 0)
(1.02032 0.000687505 0)
(1.02 0.000904085 0)
(1.01959 0.00110728 0)
(1.01909 0.00128947 0)
(1.01851 0.00144361 0)
(1.01786 0.0015638 0)
(1.01717 0.00164766 0)
(1.01645 0.00169579 0)
(1.01571 0.00171036 0)
(1.01496 0.00169409 0)
(1.01423 0.00165038 0)
(1.01353 0.00158353 0)
(1.01286 0.00149877 0)
(1.01222 0.00140165 0)
(1.01163 0.00129661 0)
(1.01109 0.00118688 0)
(1.01059 0.00107494 0)
(1.01015 0.000963568 0)
(1.00975 0.000855607 0)
(1.00939 0.000753274 0)
(1.00908 0.000657629 0)
(1.00881 0.000568834 0)
(1.00858 0.000486804 0)
(1.00838 0.000411577 0)
(1.00821 0.00034357 0)
(1.00807 0.000283038 0)
(1.00795 0.000229769 0)
(1.00785 0.000183141 0)
(1.00778 0.000142315 0)
(1.00772 0.000106534 0)
(1.00768 7.53129e-05 0)
(1.00764 4.85031e-05 0)
(1.00762 2.59988e-05 0)
(1.00761 7.46784e-06 0)
(1.00761 -7.82471e-06 0)
(1.00761 -2.04171e-05 0)
(1.00762 -3.07319e-05 0)
(1.00763 -3.90812e-05 0)
(1.00764 -4.56211e-05 0)
(1.00766 -5.05469e-05 0)
(1.00768 -5.38515e-05 0)
(1.0077 -5.57959e-05 0)
(1.00772 -5.65678e-05 0)
(1.00774 -5.64251e-05 0)
(1.00777 -5.56063e-05 0)
(1.00779 -5.42805e-05 0)
(1.00781 -5.252e-05 0)
(1.00783 -5.0316e-05 0)
(1.00785 -4.76262e-05 0)
(1.00787 -4.44679e-05 0)
(1.00788 -4.09469e-05 0)
(1.0079 -3.71722e-05 0)
(1.00792 -3.32299e-05 0)
(1.00793 -2.91731e-05 0)
(1.00794 -2.50212e-05 0)
(1.00795 -2.07625e-05 0)
(1.00796 -1.61138e-05 0)
(1.00797 -1.19574e-05 0)
(1.00796 -5.52153e-06 0)
(1.00798 1.02972e-07 0)
(0.960436 0.0487446 0)
(1.03935 0.0808753 0)
(1.06228 0.074162 0)
(1.05174 0.0578577 0)
(1.05031 0.043033 0)
(1.04995 0.0318556 0)
(1.0467 0.0238355 0)
(1.04298 0.0180859 0)
(1.03979 0.0139025 0)
(1.03709 0.010794 0)
(1.03481 0.00842838 0)
(1.03294 0.0065888 0)
(1.03143 0.00512275 0)
(1.03023 0.00393285 0)
(1.0293 0.00295655 4.79648e-34)
(1.02861 0.00214305 -4.79648e-34)
(1.02814 0.00146247 0)
(1.02783 0.000897888 0)
(1.02768 0.00043407 0)
(1.02766 6.26209e-05 0)
(1.02774 -0.00021972 0)
(1.0279 -0.000416389 0)
(1.02811 -0.000529774 0)
(1.02834 -0.00056099 0)
(1.02858 -0.000513318 0)
(1.02878 -0.000393179 0)
(1.02894 -0.000207514 0)
(1.02903 3.48904e-05 0)
(1.02903 0.000320577 0)
(1.02893 0.000633714 0)
(1.02871 0.000958048 0)
(1.02838 0.00127875 0)
(1.02795 0.00158152 0)
(1.02743 0.00185193 0)
(1.02681 0.00207852 0)
(1.02612 0.00225477 0)
(1.02538 0.00237878 0)
(1.02462 0.00245075 0)
(1.02384 0.00247217 0)
(1.02307 0.00244703 0)
(1.0223 0.00238165 0)
(1.02157 0.00228378 0)
(1.02088 0.00216131 0)
(1.02024 0.00202085 0)
(1.01964 0.00186794 0)
(1.01909 0.0017077 0)
(1.01859 0.00154516 0)
(1.01815 0.00138496 0)
(1.01775 0.00123044 0)
(1.0174 0.00108359 0)
(1.0171 0.000945639 0)
(1.01683 0.000817376 0)
(1.01661 0.000699333 0)
(1.01642 0.000591831 0)
(1.01625 0.000495007 0)
(1.01612 0.000408786 0)
(1.01601 0.000332596 0)
(1.01592 0.000265516 0)
(1.01585 0.000206621 0)
(1.0158 0.000155204 0)
(1.01576 0.000110738 0)
(1.01573 7.27815e-05 0)
(1.01572 4.07558e-05 0)
(1.01571 1.39377e-05 0)
(1.01571 -8.40204e-06 0)
(1.01571 -2.67375e-05 0)
(1.01572 -4.15756e-05 0)
(1.01574 -5.33892e-05 0)
(1.01575 -6.27205e-05 0)
(1.01577 -6.96518e-05 0)
(1.01579 -7.44941e-05 0)
(1.01581 -7.74687e-05 0)
(1.01584 -7.88381e-05 0)
(1.01586 -7.89296e-05 0)
(1.01588 -7.79959e-05 0)
(1.01591 -7.62238e-05 0)
(1.01593 -7.37242e-05 0)
(1.01595 -7.05075e-05 0)
(1.01597 -6.6673e-05 0)
(1.01599 -6.23254e-05 0)
(1.016 -5.75549e-05 0)
(1.01602 -5.24229e-05 0)
(1.01604 -4.69876e-05 0)
(1.01605 -4.1326e-05 0)
(1.01606 -3.5517e-05 0)
(1.01607 -2.9611e-05 0)
(1.01608 -2.34786e-05 0)
(1.01609 -1.75894e-05 0)
(1.01608 -1.08412e-05 0)
(1.0161 -4.58049e-06 0)
(0.957564 0.0348199 0)
(1.02702 0.0640367 0)
(1.04664 0.0638623 0)
(1.03762 0.053811 0)
(1.03917 0.0428513 0)
(1.04167 0.0335587 0)
(1.04071 0.026254 0)
(1.0387 0.0206238 0)
(1.03675 0.0162784 0)
(1.03493 0.0128952 0)
(1.0333 0.01022 0)
(1.03189 0.0080738 0)
(1.03072 0.00632679 0)
(1.02978 0.00487978 0)
(1.02906 0.00366923 0)
(1.02854 0.00265044 0)
(1.02819 0.00178919 0)
(1.02801 0.00106529 0)
(1.02797 0.000465937 0)
(1.02805 -1.78119e-05 0)
(1.02823 -0.000389162 0)
(1.02848 -0.000649295 0)
(1.02879 -0.00079901 0)
(1.02912 -0.000841303 0)
(1.02944 -0.000779042 0)
(1.02973 -0.000616327 0)
(1.02996 -0.000362294 0)
(1.0301 -3.17418e-05 0)
(1.03014 0.000357656 0)
(1.03007 0.000786281 0)
(1.02986 0.00123294 0)
(1.02952 0.00167427 0)
(1.02906 0.00208766 0)
(1.02848 0.00245406 0)
(1.02781 0.0027601 0)
(1.02706 0.00299788 0)
(1.02627 0.00316308 0)
(1.02544 0.00325502 0)
(1.02461 0.0032774 0)
(1.02378 0.00323755 0)
(1.02298 0.00314498 0)
(1.02221 0.00301011 0)
(1.0215 0.00284268 0)
(1.02083 0.00265138 0)
(1.02022 0.00244446 0)
(1.01967 0.00222965 0)
(1.01917 0.00201371 0)
(1.01873 0.00180187 0)
(1.01834 0.00159796 0)
(1.018 0.0014045 0)
(1.01771 0.00122324 0)
(1.01746 0.00105527 0)
(1.01724 0.000901309 0)
(1.01707 0.000761733 0)
(1.01692 0.000636453 0)
(1.01679 0.000524905 0)
(1.01669 0.000426207 0)
(1.01662 0.000339309 0)
(1.01656 0.000263186 0)
(1.01651 0.000197011 0)
(1.01648 0.000140013 0)
(1.01646 9.13783e-05 0)
(1.01645 5.02706e-05 0)
(1.01645 1.58478e-05 0)
(1.01645 -1.27302e-05 0)
(1.01646 -3.6196e-05 0)
(1.01647 -5.51972e-05 0)
(1.01649 -7.03421e-05 0)
(1.01651 -8.21578e-05 0)
(1.01653 -9.08953e-05 0)
(1.01655 -9.69064e-05 0)
(1.01658 -0.000100599 0)
(1.0166 -0.000102307 0)
(1.01663 -0.000102441 0)
(1.01665 -0.000101245 0)
(1.01667 -9.8914e-05 0)
(1.0167 -9.55537e-05 0)
(1.01672 -9.12866e-05 0)
(1.01674 -8.62803e-05 0)
(1.01676 -8.06436e-05 0)
(1.01678 -7.44545e-05 0)
(1.01679 -6.78096e-05 0)
(1.01681 -6.08295e-05 0)
(1.01682 -5.36018e-05 0)
(1.01683 -4.61782e-05 0)
(1.01684 -3.86406e-05 0)
(1.01685 -3.09645e-05 0)
(1.01686 -2.3508e-05 0)
(1.01686 -1.57666e-05 0)
(1.01687 -8.15974e-06 0)
(0.95627 0.0265235 0)
(1.02044 0.0517438 0)
(1.03685 0.0545532 0)
(1.02747 0.0485542 0)
(1.03012 0.0406845 0)
(1.03413 0.0333046 0)
(1.03463 0.0270324 0)
(1.03388 0.021881 0)
(1.03293 0.0176854 0)
(1.03188 0.0142701 0)
(1.03084 0.0114729 0)
(1.02989 0.00915612 0)
(1.02907 0.0072193 0)
(1.02841 0.00558373 0)
(1.02791 0.00418975 0)
(1.02757 0.00299736 0)
(1.02738 0.00197689 0)
(1.02734 0.0011075 0)
(1.02743 0.00037907 0)
(1.02764 -0.000211706 0)
(1.02794 -0.000668361 0)
(1.02831 -0.000990251 0)
(1.02874 -0.00117857 0)
(1.02919 -0.001229 0)
(1.02963 -0.00114329 0)
(1.03003 -0.000927745 0)
(1.03035 -0.000594332 0)
(1.03057 -0.000159525 0)
(1.03067 0.000355722 0)
(1.03063 0.000924467 0)
(1.03043 0.00151537 0)
(1.03006 0.00209618 0)
(1.02956 0.00263736 0)
(1.02892 0.00311513 0)
(1.02818 0.00351163 0)
(1.02735 0.00381504 0)
(1.02647 0.00401973 0)
(1.02556 0.00412682 0)
(1.02465 0.00414362 0)
(1.02376 0.00408099 0)
(1.0229 0.0039519 0)
(1.0221 0.00376972 0)
(1.02135 0.00354719 0)
(1.02067 0.00329643 0)
(1.02004 0.00302857 0)
(1.01948 0.00275342 0)
(1.01899 0.00247901 0)
(1.01856 0.00221145 0)
(1.01818 0.00195515 0)
(1.01785 0.00171308 0)
(1.01757 0.00148732 0)
(1.01734 0.00127913 0)
(1.01714 0.00108929 0)
(1.01698 0.000917973 0)
(1.01684 0.000764673 0)
(1.01674 0.000628331 0)
(1.01665 0.000507824 0)
(1.01658 0.000402003 0)
(1.01654 0.000309703 0)
(1.0165 0.000229798 0)
(1.01648 0.000161151 0)
(1.01647 0.000102635 0)
(1.01647 5.3242e-05 0)
(1.01647 1.1978e-05 0)
(1.01648 -2.2187e-05 0)
(1.0165 -5.0226e-05 0)
(1.01651 -7.28044e-05 0)
(1.01654 -9.07435e-05 0)
(1.01656 -0.000104509 0)
(1.01658 -0.00011464 0)
(1.01661 -0.00012152 0)
(1.01663 -0.000125686 0)
(1.01666 -0.000127546 0)
(1.01669 -0.000127462 0)
(1.01671 -0.000125715 0)
(1.01674 -0.000122554 0)
(1.01676 -0.000118166 0)
(1.01678 -0.000112774 0)
(1.0168 -0.000106506 0)
(1.01682 -9.94671e-05 0)
(1.01684 -9.17769e-05 0)
(1.01686 -8.35639e-05 0)
(1.01687 -7.4972e-05 0)
(1.01689 -6.6102e-05 0)
(1.0169 -5.70002e-05 0)
(1.01691 -4.77604e-05 0)
(1.01692 -3.84314e-05 0)
(1.01693 -2.93405e-05 0)
(1.01692 -2.01051e-05 0)
(1.01693 -1.07468e-05 0)
(0.955647 0.0212555 0)
(1.01679 0.0429009 0)
(1.03074 0.046882 0)
(1.02047 0.0433545 0)
(1.02329 0.037723 0)
(1.02797 0.0319679 0)
(1.02934 0.0267366 0)
(1.02942 0.0221943 0)
(1.02921 0.018318 0)
(1.02879 0.0150271 0)
(1.02825 0.0122344 0)
(1.0277 0.00985203 0)
(1.02721 0.00780635 0)
(1.02682 0.00604069 0)
(1.02654 0.00450752 9.71546e-34)
(1.02639 0.00317048 -9.71546e-34)
(1.02637 0.00200719 0)
(1.02648 0.00100545 0)
(1.02672 0.000157968 0)
(1.02707 -0.000537937 0)
(1.02752 -0.00108258 0)
(1.02804 -0.00147114 0)
(1.02862 -0.00169516 0)
(1.02922 -0.00175027 0)
(1.0298 -0.00163652 0)
(1.03034 -0.00135915 0)
(1.03079 -0.000929073 0)
(1.03112 -0.000365086 0)
(1.03129 0.000304449 0)
(1.03129 0.00104237 0)
(1.03109 0.00180692 0)
(1.0307 0.00255574 0)
(1.03014 0.00325063 0)
(1.02942 0.0038592 0)
(1.02857 0.00435708 0)
(1.02763 0.00472941 0)
(1.02664 0.00497144 0)
(1.02563 0.00508763 0)
(1.02463 0.00508906 0)
(1.02365 0.00499121 0)
(1.02273 0.00481199 0)
(1.02187 0.00456899 0)
(1.02109 0.00427914 0)
(1.02038 0.00395826 0)
(1.01974 0.0036204 0)
(1.01918 0.00327733 0)
(1.01869 0.00293831 0)
(1.01827 0.00261025 0)
(1.01791 0.00229805 0)
(1.0176 0.00200511 0)
(1.01734 0.00173367 0)
(1.01712 0.00148499 0)
(1.01695 0.00125945 0)
(1.0168 0.00105673 0)
(1.01669 0.000875882 0)
(1.0166 0.000715636 0)
(1.01653 0.000574528 0)
(1.01648 0.00045108 0)
(1.01645 0.000343847 0)
(1.01643 0.000251359 0)
(1.01642 0.00017217 0)
(1.01641 0.000104908 0)
(1.01642 4.8291e-05 0)
(1.01643 1.09132e-06 0)
(1.01645 -3.78264e-05 0)
(1.01647 -6.95397e-05 0)
(1.0165 -9.51631e-05 0)
(1.01652 -0.000115257 0)
(1.01655 -0.000130462 0)
(1.01658 -0.000141478 0)
(1.01661 -0.000148868 0)
(1.01663 -0.000153137 0)
(1.01666 -0.000154789 0)
(1.01669 -0.000154171 0)
(1.01672 -0.000151625 0)
(1.01675 -0.000147442 0)
(1.01677 -0.000141872 0)
(1.01679 -0.000135149 0)
(1.01682 -0.000127424 0)
(1.01684 -0.000118852 0)
(1.01685 -0.000109586 0)
(1.01687 -9.97527e-05 0)
(1.01689 -8.94635e-05 0)
(1.0169 -7.88315e-05 0)
(1.01691 -6.79647e-05 0)
(1.01692 -5.69715e-05 0)
(1.01693 -4.58923e-05 0)
(1.01694 -3.50253e-05 0)
(1.01694 -2.40145e-05 0)
(1.01695 -1.26921e-05 0)
(0.955315 0.0176394 0)
(1.01463 0.0363556 0)
(1.02678 0.0406736 0)
(1.01557 0.0386371 0)
(1.01816 0.0345696 0)
(1.02305 0.0300946 0)
(1.02485 0.0257926 0)
(1.02546 0.0218674 0)
(1.02577 0.0183719 0)
(1.02581 0.0152895 0)
(1.02567 0.0125823 0)
(1.02547 0.0102066 0)
(1.02527 0.00811511 0)
(1.02511 0.00626445 0)
(1.02504 0.00462156 0)
(1.02507 0.00316407 0)
(1.02522 0.00187746 0)
(1.02549 0.000752204 0)
(1.02589 -0.000214977 0)
(1.0264 -0.00102116 0)
(1.02701 -0.00165863 0)
(1.02771 -0.002115 0)
(1.02847 -0.00237778 0)
(1.02925 -0.00244006 0)
(1.03002 -0.00229502 0)
(1.03074 -0.0019429 0)
(1.03135 -0.00139417 0)
(1.03181 -0.000672101 0)
(1.03208 0.000186375 0)
(1.03213 0.00113307 0)
(1.03194 0.00211288 0)
(1.03151 0.00307004 0)
(1.03087 0.00395158 0)
(1.03003 0.00471392 0)
(1.02905 0.00532601 0)
(1.02797 0.00577113 0)
(1.02683 0.00604668 0)
(1.02569 0.00616172 0)
(1.02456 0.00613304 0)
(1.02349 0.00598284 0)
(1.02249 0.0057354 0)
(1.02157 0.0054143 0)
(1.02075 0.00504163 0)
(1.02001 0.00463725 0)
(1.01937 0.0042182 0)
(1.01881 0.0037981 0)
(1.01833 0.00338734 0)
(1.01792 0.00299343 0)
(1.01758 0.00262166 0)
(1.01729 0.00227567 0)
(1.01706 0.00195754 0)
(1.01687 0.00166814 0)
(1.01672 0.00140723 0)
(1.0166 0.0011738 0)
(1.01651 0.000966413 0)
(1.01644 0.000783533 0)
(1.01639 0.000623356 0)
(1.01636 0.000483928 0)
(1.01634 0.000363331 0)
(1.01634 0.000259727 0)
(1.01634 0.000171375 0)
(1.01635 9.66375e-05 0)
(1.01637 3.39636e-05 0)
(1.01639 -1.81031e-05 0)
(1.01641 -6.08928e-05 0)
(1.01644 -9.54261e-05 0)
(1.01647 -0.000123102 0)
(1.0165 -0.000144582 0)
(1.01654 -0.00016064 0)
(1.01657 -0.000171991 0)
(1.0166 -0.000179365 0)
(1.01663 -0.000183275 0)
(1.01666 -0.000184261 0)
(1.01669 -0.00018275 0)
(1.01672 -0.00017914 0)
(1.01675 -0.000173715 0)
(1.01678 -0.000166769 0)
(1.0168 -0.000158516 0)
(1.01682 -0.000149177 0)
(1.01685 -0.000138949 0)
(1.01687 -0.000127968 0)
(1.01688 -0.000116373 0)
(1.0169 -0.000104276 0)
(1.01691 -9.18052e-05 0)
(1.01693 -7.91021e-05 0)
(1.01694 -6.62805e-05 0)
(1.01694 -5.33372e-05 0)
(1.01696 -4.05468e-05 0)
(1.01695 -2.75887e-05 0)
(1.01696 -1.41848e-05 0)
(0.955117 0.0150073 0)
(1.01325 0.031366 0)
(1.0241 0.0356472 0)
(1.01204 0.0345124 0)
(1.01426 0.0315302 0)
(1.01911 0.0280279 0)
(1.0211 0.0244988 0)
(1.022 0.021136 0)
(1.02263 0.0180202 0)
(1.023 0.0151784 0)
(1.02317 0.0126058 0)
(1.02324 0.0102813 0)
(1.02327 0.00817851 0)
(1.02333 0.00627381 0)
(1.02344 0.004549 0)
(1.02364 0.00299004 0)
(1.02396 0.00158706 0)
(1.02439 0.000336452 0)
(1.02494 -0.000755608 0)
(1.02562 -0.00167775 0)
(1.02642 -0.00241583 0)
(1.02732 -0.00295089 0)
(1.02829 -0.00326556 0)
(1.0293 -0.00334019 0)
(1.0303 -0.00316028 0)
(1.03124 -0.00272031 0)
(1.03206 -0.00202909 0)
(1.0327 -0.00111342 0)
(1.0331 -1.90249e-05 0)
(1.03322 0.00119159 0)
(1.03303 0.00244393 0)
(1.03254 0.00366107 0)
(1.03178 0.00477132 0)
(1.03079 0.0057166 0)
(1.02963 0.00645868 0)
(1.02835 0.00697933 0)
(1.02703 0.00728007 0)
(1.02572 0.00737692 0)
(1.02445 0.00729675 0)
(1.02325 0.00707062 0)
(1.02216 0.00673124 0)
(1.02118 0.00631007 0)
(1.02031 0.00583538 0)
(1.01956 0.0053314 0)
(1.0189 0.00481796 0)
(1.01835 0.00431034 0)
(1.01789 0.0038199 0)
(1.01751 0.0033546 0)
(1.01719 0.00291981 0)
(1.01694 0.00251884 0)
(1.01673 0.00215321 0)
(1.01657 0.00182307 0)
(1.01645 0.00152748 0)
(1.01636 0.0012647 0)
(1.0163 0.00103262 0)
(1.01626 0.000829049 0)
(1.01623 0.000651649 0)
(1.01622 0.000498032 0)
(1.01622 0.000365853 0)
(1.01623 0.000252885 0)
(1.01625 0.000157038 0)
(1.01628 7.63626e-05 0)
(1.01631 9.03713e-06 0)
(1.01634 -4.65447e-05 0)
(1.01637 -9.19186e-05 0)
(1.01641 -0.000128563 0)
(1.01645 -0.000157279 0)
(1.01649 -0.000179239 0)
(1.01652 -0.000195389 0)
(1.01656 -0.000206488 0)
(1.01659 -0.000213265 0)
(1.01663 -0.000216342 0)
(1.01666 -0.000216261 0)
(1.0167 -0.00021351 0)
(1.01673 -0.000208476 0)
(1.01676 -0.000201491 0)
(1.01679 -0.000192892 0)
(1.01681 -0.000182933 0)
(1.01684 -0.000171853 0)
(1.01686 -0.000159809 0)
(1.01688 -0.000146943 0)
(1.0169 -0.00013343 0)
(1.01691 -0.00011942 0)
(1.01693 -0.000105054 0)
(1.01694 -9.04391e-05 0)
(1.01695 -7.56657e-05 0)
(1.01696 -6.07331e-05 0)
(1.01697 -4.59126e-05 0)
(1.01696 -3.09068e-05 0)
(1.01697 -1.53482e-05 0)
(0.954989 0.0130124 0)
(1.0123 0.0274633 0)
(1.0222 0.0315518 0)
(1.00944 0.0309648 0)
(1.01126 0.0287363 0)
(1.01594 0.025963 0)
(1.01795 0.0230483 0)
(1.01898 0.0201681 0)
(1.01981 0.0174083 0)
(1.02039 0.0148097 0)
(1.02077 0.0123847 0)
(1.02104 0.0101311 0)
(1.02126 0.00804124 0)
(1.02148 0.00610538 0)
(1.02176 0.00431367 2.48816e-34)
(1.02211 0.0026588 -2.48816e-34)
(1.02257 0.00113937 0)
(1.02315 -0.000237978 0)
(1.02387 -0.00146185 0)
(1.02474 -0.00251665 0)
(1.02574 -0.00337555 0)
(1.02686 -0.00401319 0)
(1.02808 -0.00439693 0)
(1.02936 -0.00449565 0)
(1.03064 -0.00428381 0)
(1.03187 -0.0037463 0)
(1.03296 -0.00288619 0)
(1.03382 -0.00173132 0)
(1.03439 -0.000337856 0)
(1.0346 0.00121102 0)
(1.03441 0.00281268 0)
(1.03384 0.00435909 0)
(1.03292 0.00575374 0)
(1.03172 0.00691878 0)
(1.03032 0.0078082 0)
(1.02879 0.00840353 0)
(1.02723 0.00871376 0)
(1.0257 0.00876732 0)
(1.02426 0.00860417 0)
(1.02292 0.00826923 0)
(1.02173 0.007807 0)
(1.02068 0.00725824 0)
(1.01977 0.0066581 0)
(1.01899 0.00603533 0)
(1.01834 0.00541235 0)
(1.01781 0.00480583 0)
(1.01737 0.0042276 0)
(1.01702 0.00368559 0)
(1.01674 0.00318466 0)
(1.01653 0.00272726 0)
(1.01636 0.00231396 0)
(1.01624 0.00194387 0)
(1.01616 0.00161507 0)
(1.0161 0.00132491 0)
(1.01607 0.00107045 0)
(1.01606 0.000848568 0)
(1.01606 0.00065629 0)
(1.01607 0.000490748 0)
(1.0161 0.000349176 0)
(1.01613 0.000228926 0)
(1.01616 0.00012752 0)
(1.0162 4.26763e-05 0)
(1.01624 -2.76587e-05 0)
(1.01629 -8.53617e-05 0)
(1.01633 -0.000132057 0)
(1.01638 -0.000169298 0)
(1.01642 -0.00019811 0)
(1.01647 -0.000219757 0)
(1.01651 -0.000235165 0)
(1.01655 -0.00024528 0)
(1.01659 -0.000250849 0)
(1.01663 -0.000252573 0)
(1.01667 -0.000250983 0)
(1.0167 -0.000246566 0)
(1.01674 -0.000239735 0)
(1.01677 -0.000230903 0)
(1.0168 -0.000220408 0)
(1.01682 -0.000208535 0)
(1.01685 -0.000195491 0)
(1.01687 -0.000181422 0)
(1.01689 -0.000166525 0)
(1.01691 -0.000150988 0)
(1.01693 -0.000134981 0)
(1.01694 -0.000118618 0)
(1.01696 -0.000101976 0)
(1.01697 -8.51313e-05 0)
(1.01697 -6.811e-05 0)
(1.01699 -5.11761e-05 0)
(1.01697 -3.40516e-05 0)
(1.01699 -1.62751e-05 0)
(0.954895 0.0114592 0)
(1.01163 0.024348 0)
(1.0208 0.0281884 0)
(1.00746 0.0279385 0)
(1.00889 0.026231 0)
(1.01336 0.0239984 0)
(1.01529 0.0215706 0)
(1.01636 0.0190942 0)
(1.01727 0.0166466 0)
(1.01798 0.0142713 0)
(1.01849 0.0119919 0)
(1.01889 0.00981881 0)
(1.01925 0.00775408 0)
(1.0196 0.00579532 0)
(1.02 0.00393979 2.51668e-34)
(1.02047 0.00218832 -2.51668e-34)
(1.02106 0.000547634 0)
(1.02179 -0.000968336 0)
(1.02266 -0.00234326 0)
(1.02371 -0.00355343 0)
(1.02493 -0.00456303 0)
(1.0263 -0.00533079 0)
(1.02781 -0.00581251 0)
(1.02941 -0.00596082 0)
(1.03105 -0.00573158 0)
(1.03264 -0.0050928 0)
(1.03408 -0.00403505 0)
(1.03525 -0.00258345 0)
(1.03604 -0.00080661 0)
(1.03637 0.00118272 0)
(1.03618 0.00323858 0)
(1.03548 0.00520938 0)
(1.03434 0.00696123 0)
(1.03285 0.00839175 0)
(1.03112 0.00944482 0)
(1.02926 0.0101078 0)
(1.0274 0.0104012 0)
(1.02561 0.0103725 0)
(1.02395 0.0100816 0)
(1.02246 0.0095936 0)
(1.02115 0.00896831 0)
(1.02003 0.00825739 0)
(1.01909 0.0075034 0)
(1.01831 0.0067395 0)
(1.01767 0.00599023 0)
(1.01717 0.00527297 0)
(1.01677 0.00459919 0)
(1.01646 0.00397588 0)
(1.01623 0.0034066 0)
(1.01607 0.00289233 0)
(1.01595 0.0024322 0)
(1.01587 0.00202395 0)
(1.01583 0.0016643 0)
(1.01582 0.00134947 0)
(1.01582 0.00107547 0)
(1.01584 0.000838268 0)
(1.01587 0.000634127 0)
(1.01591 0.000459575 0)
(1.01596 0.000311307 0)
(1.01601 0.00018621 0)
(1.01607 8.14161e-05 0)
(1.01612 -5.63198e-06 0)
(1.01618 -7.72012e-05 0)
(1.01623 -0.000135434 0)
(1.01629 -0.000182029 0)
(1.01634 -0.000218449 0)
(1.0164 -0.000246166 0)
(1.01645 -0.000266409 0)
(1.0165 -0.000280273 0)
(1.01654 -0.000288657 0)
(1.01659 -0.00029239 0)
(1.01663 -0.000292134 0)
(1.01667 -0.000288488 0)
(1.01671 -0.000281948 0)
(1.01674 -0.000272994 0)
(1.01678 -0.000262031 0)
(1.01681 -0.000249395 0)
(1.01684 -0.00023535 0)
(1.01686 -0.000220088 0)
(1.01689 -0.000203829 0)
(1.01691 -0.000186774 0)
(1.01693 -0.000169103 0)
(1.01695 -0.000150971 0)
(1.01696 -0.000132476 0)
(1.01697 -0.000113686 0)
(1.01698 -9.46882e-05 0)
(1.01699 -7.55171e-05 0)
(1.017 -5.6406e-05 0)
(1.01699 -3.70923e-05 0)
(1.01701 -1.70347e-05 0)
(0.954823 0.0102295 0)
(1.01112 0.0218274 0)
(1.01973 0.0254043 0)
(1.00591 0.0253609 0)
(1.00699 0.0240219 0)
(1.01123 0.0221939 0)
(1.01303 0.0201476 0)
(1.01406 0.0179995 0)
(1.01498 0.0158161 0)
(1.01574 0.0136398 0)
(1.01632 0.0114973 0)
(1.0168 0.00940305 0)
(1.01724 0.00736326 0)
(1.01767 0.00538088 0)
(1.01815 0.00345958 -6.3762e-35)
(1.01872 0.00160641 6.3762e-35)
(1.01941 -0.000166927 0)
(1.02026 -0.00184377 0)
(1.02129 -0.00339867 0)
(1.02252 -0.0047956 0)
(1.02396 -0.00599277 0)
(1.02561 -0.00693628 0)
(1.02745 -0.00756334 0)
(1.02944 -0.00780441 0)
(1.03151 -0.00758901 0)
(1.03357 -0.00685644 0)
(1.03547 -0.00557291 0)
(1.03705 -0.0037531 0)
(1.03815 -0.00147908 0)
(1.03864 0.00109553 0)
(1.03844 0.00375319 0)
(1.03756 0.00627763 0)
(1.0361 0.00848259 0)
(1.03421 0.0102363 0)
(1.03203 0.0114691 0)
(1.02975 0.0121773 0)
(1.02749 0.0124067 0)
(1.02538 0.0122348 0)
(1.02348 0.0117544 0)
(1.02181 0.0110553 0)
(1.02039 0.010216 0)
(1.01921 0.00930076 0)
(1.01825 0.00835965 0)
(1.01748 0.00742949 0)
(1.01688 0.00653611 0)
(1.01642 0.00569642 0)
(1.01607 0.00492023 0)
(1.01583 0.00421234 0)
(1.01566 0.00357399 0)
(1.01555 0.00300394 0)
(1.01549 0.00249928 0)
(1.01547 0.00205594 0)
(1.01548 0.001669 0)
(1.01551 0.00133329 0)
(1.01556 0.00104358 0)
(1.01562 0.00079482 0)
(1.01568 0.000582424 0)
(1.01575 0.000402217 0)
(1.01582 0.000250333 0)
(1.0159 0.000123194 0)
(1.01597 1.75532e-05 0)
(1.01604 -6.94316e-05 0)
(1.01611 -0.000140106 0)
(1.01618 -0.000196982 0)
(1.01625 -0.000241831 0)
(1.01631 -0.000276247 0)
(1.01637 -0.000301701 0)
(1.01643 -0.000319524 0)
(1.01649 -0.000330899 0)
(1.01654 -0.00033676 0)
(1.01659 -0.000337903 0)
(1.01663 -0.000335046 0)
(1.01668 -0.000328813 0)
(1.01672 -0.000319743 0)
(1.01676 -0.000308306 0)
(1.01679 -0.000294889 0)
(1.01682 -0.000279802 0)
(1.01685 -0.000263301 0)
(1.01688 -0.000245629 0)
(1.0169 -0.000227025 0)
(1.01693 -0.000207674 0)
(1.01695 -0.000187745 0)
(1.01696 -0.00016736 0)
(1.01698 -0.000146614 0)
(1.01699 -0.000125596 0)
(1.017 -0.000104386 0)
(1.01701 -8.30044e-05 0)
(1.01702 -6.16433e-05 0)
(1.01701 -4.00736e-05 0)
(1.01703 -1.76832e-05 0)
(0.954766 0.00924894 0)
(1.01072 0.0197637 0)
(1.01889 0.0230855 0)
(1.00467 0.0231703 0)
(1.00543 0.0220979 0)
(1.00944 0.0205743 0)
(1.01109 0.0188249 0)
(1.01203 0.0169426 0)
(1.01291 0.0149821 0)
(1.01366 0.0129799 0)
(1.01425 0.0109595 0)
(1.01476 0.00893511 0)
(1.01522 0.00691475 0)
(1.01569 0.00490463 0)
(1.01622 0.00291174 0)
(1.01684 0.000945911 0)
(1.01761 -0.000978425 0)
(1.01855 -0.00284036 0)
(1.01971 -0.0046076 0)
(1.02112 -0.00623808 0)
(1.02279 -0.0076784 0)
(1.02473 -0.00886163 0)
(1.02694 -0.00970398 0)
(1.02939 -0.0101082 0)
(1.032 -0.00996567 0)
(1.03466 -0.00916909 0)
(1.03718 -0.00763931 0)
(1.03934 -0.00536421 0)
(1.04089 -0.00243796 0)
(1.0416 0.000918059 0)
(1.04136 0.00439453 0)
(1.04021 0.00765951 0)
(1.0383 0.0104502 0)
(1.03584 0.0125938 0)
(1.03306 0.0140115 0)
(1.0302 0.0147163 0)
(1.02745 0.0148021 0)
(1.02496 0.0143983 0)
(1.02277 0.013643 0)
(1.02092 0.0126576 0)
(1.0194 0.0115418 0)
(1.01817 0.0103732 0)
(1.01722 0.009208 0)
(1.01649 0.00808505 0)
(1.01594 0.00702971 0)
(1.01555 0.00605679 0)
(1.01528 0.00517291 0)
(1.01512 0.00437916 0)
(1.01502 0.00367319 0)
(1.01499 0.00305058 0)
(1.015 0.0025057 0)
(1.01504 0.00203208 0)
(1.01511 0.00162287 0)
(1.01519 0.00127126 0)
(1.01528 0.000970692 0)
(1.01538 0.000715005 0)
(1.01548 0.00049865 0)
(1.01558 0.000316696 0)
(1.01568 0.000164703 0)
(1.01578 3.86546e-05 0)
(1.01587 -6.49485e-05 0)
(1.01596 -0.000148961 0)
(1.01605 -0.000216919 0)
(1.01613 -0.000270648 0)
(1.01621 -0.000312101 0)
(1.01628 -0.000342952 0)
(1.01635 -0.000364884 0)
(1.01642 -0.000379244 0)
(1.01648 -0.000387137 0)
(1.01654 -0.000389573 0)
(1.01659 -0.000387389 0)
(1.01664 -0.000381326 0)
(1.01669 -0.000372028 0)
(1.01673 -0.000359972 0)
(1.01677 -0.00034564 0)
(1.01681 -0.000329394 0)
(1.01684 -0.000311548 0)
(1.01687 -0.000292377 0)
(1.0169 -0.000272121 0)
(1.01692 -0.000250994 0)
(1.01695 -0.000229197 0)
(1.01697 -0.000206868 0)
(1.01699 -0.000184118 0)
(1.017 -0.000161045 0)
(1.01702 -0.000137734 0)
(1.01703 -0.000114241 0)
(1.01703 -9.05767e-05 0)
(1.01705 -6.68935e-05 0)
(1.01703 -4.30206e-05 0)
(1.01705 -1.82694e-05 0)
(0.954718 0.00846811 0)
(1.01039 0.0180653 0)
(1.0182 0.0211502 0)
(1.00365 0.0213141 0)
(1.00413 0.0204369 0)
(1.00791 0.0191456 0)
(1.0094 0.017631 0)
(1.01022 0.0159669 0)
(1.01102 0.0141946 0)
(1.01171 0.0123422 0)
(1.01228 0.010428 0)
(1.01276 0.00846358 0)
(1.01321 0.00645637 0)
(1.01367 0.00441235 0)
(1.01419 0.00233835 -1.05423e-33)
(1.01483 0.000244574 1.05423e-33)
(1.01563 -0.00185452 0)
(1.01663 -0.0039327 0)
(1.01789 -0.00595439 0)
(1.01945 -0.00787244 0)
(1.02134 -0.00962539 0)
(1.02358 -0.0111322 0)
(1.0262 -0.0122896 0)
(1.02918 -0.0129663 0)
(1.03245 -0.0130012 0)
(1.03589 -0.012213 0)
(1.03927 -0.0104392 0)
(1.04225 -0.00760597 0)
(1.04444 -0.00380308 0)
(1.04548 0.000663248 0)
(1.04518 0.00523729 0)
(1.04362 0.0095201 0)
(1.04104 0.0130722 0)
(1.03777 0.0156688 0)
(1.03415 0.0172429 0)
(1.03054 0.0178586 0)
(1.02718 0.0176782 0)
(1.02422 0.0169105 0)
(1.02174 0.0157593 0)
(1.01971 0.014389 0)
(1.01811 0.0129223 0)
(1.01688 0.0114463 0)
(1.01596 0.010019 0)
(1.0153 0.00867779 0)
(1.01485 0.00744463 0)
(1.01456 0.00633015 0)
(1.0144 0.00533609 0)
(1.01433 0.00445816 0)
(1.01433 0.00368894 0)
(1.01438 0.0030197 0)
(1.01448 0.00244124 0)
(1.01459 0.00194421 0)
(1.01472 0.00151949 0)