/*--------------------------------*- C++ -*----------------------------------*\
| =========                 |                                                 |
| \\      /  F ield         | OpenFOAM: The Open Source CFD Toolbox           |
|  \\    /   O peration     | Version:  v1806                                 |
|   \\  /    A nd           | Web:      www.OpenFOAM.com                      |
|    \\/     M anipulation  |                                                 |
\*---------------------------------------------------------------------------*/
FoamFile
{
    version     2.0;
    format      ascii;
    class       vectorField;
    location    "0.08";
    object      currentcloudofpoints;
}
// * * * * * * * * * * * * * * * * * * * * * * * * * * * * * * * * * * * * * //


648
(
(0.291028 0.425319 0.05)
(0.706182 0.544573 0.05)
(0.387468 0.696169 0.05)
(0.778482 0.339408 0.05)
(0.269202 0.44948 0.05)
(0.209687 0.445984 0.05)
(0.147519 0.401585 0.05)
(0.133708 0.337429 0.05)
(0.161662 0.268094 0.05)
(0.211354 0.2242 0.05)
(0.250949 0.209225 0.05)
(0.272059 0.210618 0.05)
(0.279636 0.214044 0.05)
(0.281758 0.216449 0.05)
(0.287017 0.220264 0.05)
(0.296515 0.229078 0.05)
(0.308288 0.247682 0.05)
(0.314612 0.275646 0.05)
(0.328018 0.308323 0.05)
(0.382471 0.305255 0.05)
(0.41104 0.288108 0.05)
(0.421065 0.285157 0.05)
(0.415397 0.295602 0.05)
(0.398709 0.313647 0.05)
(0.374407 0.336696 0.05)
(0.379796 0.348055 0.05)
(0.479231 0.262546 0.05)
(0.584636 0.20041 0.05)
(0.669139 0.212428 0.05)
(0.736872 0.239102 0.05)
(0.788301 0.266873 0.05)
(0.821753 0.304166 0.05)
(0.832356 0.357633 0.05)
(0.805974 0.436728 0.05)
(0.690053 0.517894 0.05)
(0.658339 0.576563 0.05)
(0.685447 0.593667 0.05)
(0.692812 0.581673 0.05)
(0.695282 0.562499 0.05)
(0.7224 0.536079 0.05)
(0.739585 0.537097 0.05)
(0.760155 0.545601 0.05)
(0.783587 0.560083 0.05)
(0.804829 0.578083 0.05)
(0.820364 0.596585 0.05)
(0.830031 0.614564 0.05)
(0.833763 0.633574 0.05)
(0.829761 0.657936 0.05)
(0.808594 0.689168 0.05)
(0.75804 0.721987 0.05)
(0.694345 0.736588 0.05)
(0.633863 0.724718 0.05)
(0.600896 0.701789 0.05)
(0.597359 0.674683 0.05)
(0.610317 0.645631 0.05)
(0.636183 0.622021 0.05)
(0.66827 0.622134 0.05)
(0.713034 0.642468 0.05)
(0.75093 0.652967 0.05)
(0.756511 0.649073 0.05)
(0.643196 0.599665 0.05)
(0.554073 0.851822 0.05)
(0.378964 0.834851 0.05)
(0.317247 0.790008 0.05)
(0.294091 0.803491 0.05)
(0.259644 0.802481 0.05)
(0.225296 0.792688 0.05)
(0.163748 0.725075 0.05)
(0.34076 0.478793 0.05)
(0.203048 0.276149 0.05)
(0.152216 0.327098 0.05)
(0.179965 0.390815 0.05)
(0.228057 0.382438 0.05)
(0.272781 0.393188 0.05)
(0.393392 0.727362 0.05)
(0.392222 0.756156 0.05)
(0.397372 0.772666 0.05)
(0.406871 0.770911 0.05)
(0.414372 0.754176 0.05)
(0.418814 0.730371 0.05)
(0.440919 0.6992 0.05)
(0.515308 0.479372 0.05)
(0.476244 0.358607 0.05)
(0.676504 0.301876 0.05)
(0.689352 0.322117 0.05)
(0.64701 0.323317 0.05)
(0.594265 0.331562 0.05)
(0.562509 0.341281 0.05)
(0.553263 0.347558 0.05)
(0.569337 0.347087 0.05)
(0.645132 0.332401 0.05)
(0.729483 0.353254 0.05)
(0.761401 0.347306 0.05)
(0.772211 0.32149 0.05)
(0.748722 0.278599 0.05)
(0.67689 0.233163 0.05)
(0.59375 0.218396 0.05)
(0.53598 0.228129 0.05)
(0.544768 0.221515 0.05)
(0.623581 0.215341 0.05)
(0.733931 0.251173 0.05)
(0.807182 0.309982 0.05)
(0.818553 0.356165 0.05)
(0.80939 0.403862 0.05)
(0.781421 0.448671 0.05)
(0.779523 0.448736 0.05)
(0.804735 0.400232 0.05)
(0.805679 0.356872 0.05)
(0.79348 0.334579 0.05)
(0.750446 0.356746 0.05)
(0.679212 0.336755 0.05)
(0.585528 0.345291 0.05)
(0.55766 0.355859 0.05)
(0.5526 0.359758 0.05)
(0.555564 0.361683 0.05)
(0.557096 0.368601 0.05)
(0.522125 0.488366 0.05)
(0.445503 0.761254 0.05)
(0.34943 0.786858 0.05)
(0.230624 0.715235 0.05)
(0.278696 0.697067 0.05)
(0.336788 0.713797 0.05)
(0.364626 0.755045 0.05)
(0.388811 0.730637 0.05)
(0.366264 0.674836 0.05)
(0.231296 0.679881 0.05)
(0.188215 0.677064 0.05)
(0.190891 0.735948 0.05)
(0.228997 0.766894 0.05)
(0.230691 0.767942 0.05)
(0.20347 0.751946 0.05)
(0.181044 0.715523 0.05)
(0.179593 0.692815 0.05)
(0.178857 0.689918 0.05)
(0.176992 0.689186 0.05)
(0.175295 0.685723 0.05)
(0.175891 0.677515 0.05)
(0.178092 0.670888 0.05)
(0.181777 0.667866 0.05)
(0.188257 0.666552 0.05)
(0.1998 0.668525 0.05)
(0.227955 0.678177 0.05)
(0.30572 0.686289 0.05)
(0.363914 0.673553 0.05)
(0.80379 0.620987 0.05)
(0.451356 0.548568 0.05)
(0.226073 0.676634 0.05)
(0.752517 0.454836 0.05)
(0.404287 0.742761 0.05)
(0.751316 0.349181 0.05)
(0.205269 0.679635 0.05)
(0.719942 0.315429 0.05)
(0.558334 0.808015 0.05)
(0.619782 0.341995 0.05)
(0.594324 0.224567 0.05)
(0.415817 0.694504 0.05)
(0.820573 0.670701 0.05)
(0.694333 0.513029 0.05)
(0.787358 0.68716 0.05)
(0.214292 0.775485 0.05)
(0.388157 0.458113 0.05)
(0.686103 0.222077 0.05)
(0.391809 0.70806 0.05)
(0.332552 0.677918 0.05)
(0.564711 0.494979 0.05)
(0.647675 0.591664 0.05)
(0.195315 0.664994 0.05)
(0.186424 0.628186 0.05)
(0.420422 0.718248 0.05)
(0.404952 0.760059 0.05)
(0.764018 0.355765 0.05)
(0.798339 0.371882 0.05)
(0.662728 0.596906 0.05)
(0.809666 0.417085 0.05)
(0.573325 0.358981 0.05)
(0.647474 0.334305 0.05)
(0.700933 0.33309 0.05)
(0.573501 0.31165 0.05)
(0.332795 0.681564 0.05)
(0.345173 0.78395 0.05)
(0.731933 0.26676 0.05)
(0.76246 0.344647 0.05)
(0.667909 0.333513 0.05)
(0.6127 0.334697 0.05)
(0.821427 0.628171 0.05)
(0.798478 0.639389 0.05)
(0.185285 0.723446 0.05)
(0.373987 0.67923 0.05)
(0.389377 0.483233 0.05)
(0.445098 0.517445 0.05)
(0.563851 0.679973 0.05)
(0.819807 0.653928 0.05)
(0.167943 0.679337 0.05)
(0.240893 0.77794 0.05)
(0.330967 0.406596 0.05)
(0.412913 0.359266 0.05)
(0.768789 0.266286 0.05)
(0.513306 0.233904 0.05)
(0.774706 0.618438 0.05)
(0.704414 0.377129 0.05)
(0.189367 0.646729 0.05)
(0.388668 0.697547 0.05)
(0.765611 0.369453 0.05)
(0.28541 0.660328 0.05)
(0.513938 0.506485 0.05)
(0.767068 0.315401 0.05)
(0.466944 0.701077 0.05)
(0.539441 0.829556 0.05)
(0.72264 0.346679 0.05)
(0.218959 0.676834 0.05)
(0.824866 0.329806 0.05)
(0.520236 0.310843 0.05)
(0.712116 0.727165 0.05)
(0.540037 0.876501 0.05)
(0.456049 0.519356 0.05)
(0.374525 0.365441 0.05)
(0.828735 0.366858 0.05)
(0.659387 0.585851 0.05)
(0.741307 0.596181 0.05)
(0.750042 0.558218 0.05)
(0.493214 0.595129 0.05)
(0.276849 0.687856 0.05)
(0.812433 0.620753 0.05)
(0.760183 0.638863 0.05)
(0.24172 0.250405 0.05)
(0.33718 0.371489 0.05)
(0.394029 0.709496 0.05)
(0.415074 0.712887 0.05)
(0.61268 0.70217 0.05)
(0.655289 0.65453 0.05)
(0.311274 0.778414 0.05)
(0.166055 0.725679 0.05)
(0.205303 0.262593 0.05)
(0.14924 0.295097 0.05)
(0.659265 0.280713 0.05)
(0.481884 0.546115 0.05)
(0.731036 0.68434 0.05)
(0.619486 0.602353 0.05)
(0.527092 0.491378 0.05)
(0.39789 0.837891 0.05)
(0.706433 0.290255 0.05)
(0.719342 0.288403 0.05)
(0.51805 0.522556 0.05)
(0.727685 0.730181 0.05)
(0.485102 0.435654 0.05)
(0.606236 0.297698 0.05)
(0.602577 0.204267 0.05)
(0.795607 0.277182 0.05)
(0.214389 0.668023 0.05)
(0.329849 0.678179 0.05)
(0.788475 0.576797 0.05)
(0.811843 0.606312 0.05)
(0.389349 0.700578 0.05)
(0.369302 0.675508 0.05)
(0.393842 0.73336 0.05)
(0.373522 0.67774 0.05)
(0.394632 0.76194 0.05)
(0.337308 0.676199 0.05)
(0.274297 0.688699 0.05)
(0.802471 0.392692 0.05)
(0.671682 0.523061 0.05)
(0.558844 0.492359 0.05)
(0.625101 0.567766 0.05)
(0.562482 0.424875 0.05)
(0.698099 0.622978 0.05)
(0.640175 0.583662 0.05)
(0.300694 0.687345 0.05)
(0.223479 0.676502 0.05)
(0.186134 0.65751 0.05)
(0.196925 0.666807 0.05)
(0.199501 0.593402 0.05)
(0.324052 0.496044 0.05)
(0.186065 0.663085 0.05)
(0.412778 0.74899 0.05)
(0.405748 0.765972 0.05)
(0.418452 0.724828 0.05)
(0.411759 0.742304 0.05)
(0.463 0.667977 0.05)
(0.410943 0.734167 0.05)
(0.404356 0.752698 0.05)
(0.771647 0.348636 0.05)
(0.790599 0.342041 0.05)
(0.735485 0.356922 0.05)
(0.784397 0.348888 0.05)
(0.664516 0.334403 0.05)
(0.791557 0.373389 0.05)
(0.775217 0.439616 0.05)
(0.790406 0.443739 0.05)
(0.821626 0.363211 0.05)
(0.660232 0.537085 0.05)
(0.681789 0.521016 0.05)
(0.643402 0.581506 0.05)
(0.645587 0.570608 0.05)
(0.754795 0.476433 0.05)
(0.577095 0.350646 0.05)
(0.590647 0.344426 0.05)
(0.569922 0.356704 0.05)
(0.609081 0.34078 0.05)
(0.558101 0.377771 0.05)
(0.607933 0.34346 0.05)
(0.680565 0.339475 0.05)
(0.649505 0.296868 0.05)
(0.451642 0.391065 0.05)
(0.704354 0.323972 0.05)
(0.710379 0.318162 0.05)
(0.673659 0.32721 0.05)
(0.720904 0.33355 0.05)
(0.693743 0.301665 0.05)
(0.341568 0.780495 0.05)
(0.458094 0.731048 0.05)
(0.215092 0.704371 0.05)
(0.207358 0.698703 0.05)
(0.312127 0.68939 0.05)
(0.295499 0.689793 0.05)
(0.20025 0.70022 0.05)
(0.748136 0.35375 0.05)
(0.704639 0.343983 0.05)
(0.768279 0.336784 0.05)
(0.770345 0.318271 0.05)
(0.765028 0.30034 0.05)
(0.661187 0.230836 0.05)
(0.745696 0.27922 0.05)
(0.573338 0.342282 0.05)
(0.600844 0.333549 0.05)
(0.572287 0.345007 0.05)
(0.619665 0.334187 0.05)
(0.600041 0.338784 0.05)
(0.723514 0.350241 0.05)
(0.703079 0.342404 0.05)
(0.543041 0.869589 0.05)
(0.227398 0.764955 0.05)
(0.626233 0.596198 0.05)
(0.808114 0.633792 0.05)
(0.718244 0.634235 0.05)
(0.819834 0.622901 0.05)
(0.50902 0.564144 0.05)
(0.386959 0.731381 0.05)
(0.366576 0.732893 0.05)
(0.370285 0.676752 0.05)
(0.242855 0.683269 0.05)
(0.221828 0.677086 0.05)
(0.430856 0.897917 0.05)
(0.182272 0.700575 0.05)
(0.188328 0.607294 0.05)
(0.18301 0.620083 0.05)
(0.182979 0.629464 0.05)
(0.427551 0.503412 0.05)
(0.180964 0.651191 0.05)
(0.439647 0.671529 0.05)
(0.470297 0.639323 0.05)
(0.556854 0.695984 0.05)
(0.687324 0.620838 0.05)
(0.517391 0.899132 0.05)
(0.788223 0.646259 0.05)
(0.266557 0.764509 0.05)
(0.808969 0.651673 0.05)
(0.800172 0.682954 0.05)
(0.181161 0.727298 0.05)
(0.204861 0.755769 0.05)
(0.172926 0.711748 0.05)
(0.18767 0.746222 0.05)
(0.170694 0.676308 0.05)
(0.17083 0.727391 0.05)
(0.240197 0.781984 0.05)
(0.542749 0.229098 0.05)
(0.67228 0.23246 0.05)
(0.451461 0.310268 0.05)
(0.356494 0.416371 0.05)
(0.406117 0.353771 0.05)
(0.359562 0.434826 0.05)
(0.391628 0.445993 0.05)
(0.554822 0.213975 0.05)
(0.468716 0.282822 0.05)
(0.689754 0.227007 0.05)
(0.642828 0.214377 0.05)
(0.798535 0.29268 0.05)
(0.724287 0.240239 0.05)
(0.609888 0.208387 0.05)
(0.727591 0.631173 0.05)
(0.78648 0.627439 0.05)
(0.738656 0.629285 0.05)
(0.794612 0.60602 0.05)
(0.689751 0.611545 0.05)
(0.679268 0.516022 0.05)
(0.600826 0.531578 0.05)
(0.616875 0.377305 0.05)
(0.650174 0.507582 0.05)
(0.563073 0.419064 0.05)
(0.244375 0.682916 0.05)
(0.211529 0.67144 0.05)
(0.19009 0.658659 0.05)
(0.199432 0.664191 0.05)
(0.237214 0.545556 0.05)
(0.395333 0.755364 0.05)
(0.396061 0.749027 0.05)
(0.389772 0.700759 0.05)
(0.396884 0.74304 0.05)
(0.325558 0.679983 0.05)
(0.710377 0.348396 0.05)
(0.73448 0.359772 0.05)
(0.769724 0.358778 0.05)
(0.726198 0.361116 0.05)
(0.784468 0.384762 0.05)
(0.228841 0.548777 0.05)
(0.46131 0.548386 0.05)
(0.463579 0.635177 0.05)
(0.404029 0.649395 0.05)
(0.332727 0.668478 0.05)
(0.515161 0.48392 0.05)
(0.450898 0.394976 0.05)
(0.453815 0.680848 0.05)
(0.517109 0.333832 0.05)
(0.415449 0.719286 0.05)
(0.726754 0.351973 0.05)
(0.767239 0.334853 0.05)
(0.746614 0.352942 0.05)
(0.720271 0.260377 0.05)
(0.761853 0.341423 0.05)
(0.497275 0.608345 0.05)
(0.416635 0.832039 0.05)
(0.544774 0.415043 0.05)
(0.253488 0.736132 0.05)
(0.561427 0.389273 0.05)
(0.558182 0.819286 0.05)
(0.523956 0.513272 0.05)
(0.689746 0.621412 0.05)
(0.505297 0.582395 0.05)
(0.664062 0.604705 0.05)
(0.645606 0.329516 0.05)
(0.680954 0.334816 0.05)
(0.696673 0.336909 0.05)
(0.732286 0.350729 0.05)
(0.726591 0.342286 0.05)
(0.383922 0.71969 0.05)
(0.324183 0.681349 0.05)
(0.377563 0.683601 0.05)
(0.200619 0.745046 0.05)
(0.281149 0.689924 0.05)
(0.822704 0.334343 0.05)
(0.82512 0.364713 0.05)
(0.811609 0.302656 0.05)
(0.819881 0.397492 0.05)
(0.788923 0.276248 0.05)
(0.597092 0.221095 0.05)
(0.405753 0.385932 0.05)
(0.508402 0.2555 0.05)
(0.477129 0.350178 0.05)
(0.491681 0.279929 0.05)
(0.826177 0.646536 0.05)
(0.791544 0.695361 0.05)
(0.824262 0.661554 0.05)
(0.720561 0.720231 0.05)
(0.760876 0.716079 0.05)
(0.364611 0.812423 0.05)
(0.314095 0.772924 0.05)
(0.551254 0.748659 0.05)
(0.283544 0.776398 0.05)
(0.754672 0.644641 0.05)
(0.296221 0.503225 0.05)
(0.484851 0.566466 0.05)
(0.371139 0.474573 0.05)
(0.487981 0.603913 0.05)
(0.207939 0.56172 0.05)
(0.358113 0.382396 0.05)
(0.456277 0.293546 0.05)
(0.292979 0.37002 0.05)
(0.541153 0.213872 0.05)
(0.24836 0.325707 0.05)
(0.829681 0.331975 0.05)
(0.821523 0.40353 0.05)
(0.749526 0.481415 0.05)
(0.703271 0.508103 0.05)
(0.808364 0.426872 0.05)
(0.64833 0.565095 0.05)
(0.664049 0.587688 0.05)
(0.71337 0.563789 0.05)
(0.722815 0.547881 0.05)
(0.717092 0.589675 0.05)
(0.739344 0.566091 0.05)
(0.704797 0.606295 0.05)
(0.765347 0.580242 0.05)
(0.78893 0.585043 0.05)
(0.157191 0.411636 0.05)
(0.141879 0.307196 0.05)
(0.227239 0.445996 0.05)
(0.3623 0.670639 0.05)
(0.228821 0.440487 0.05)
(0.218607 0.593087 0.05)
(0.303937 0.511993 0.05)
(0.799335 0.577158 0.05)
(0.810271 0.588346 0.05)
(0.786291 0.636585 0.05)
(0.817552 0.597663 0.05)
(0.577398 0.375936 0.05)
(0.543435 0.435612 0.05)
(0.822525 0.605287 0.05)
(0.348961 0.327893 0.05)
(0.33056 0.340519 0.05)
(0.261614 0.300066 0.05)
(0.341395 0.364126 0.05)
(0.293338 0.376216 0.05)
(0.240833 0.298456 0.05)
(0.485635 0.256562 0.05)
(0.414024 0.706386 0.05)
(0.415694 0.707294 0.05)
(0.40055 0.719925 0.05)
(0.432407 0.700196 0.05)
(0.397942 0.732194 0.05)
(0.406572 0.724904 0.05)
(0.468445 0.657372 0.05)
(0.607737 0.666334 0.05)
(0.634354 0.636843 0.05)
(0.617887 0.672302 0.05)
(0.6737 0.63567 0.05)
(0.695288 0.732512 0.05)
(0.630416 0.710777 0.05)
(0.717695 0.65413 0.05)
(0.361618 0.81275 0.05)
(0.300295 0.795236 0.05)
(0.256537 0.795396 0.05)
(0.249971 0.797298 0.05)
(0.284776 0.791025 0.05)
(0.171887 0.737377 0.05)
(0.186661 0.763285 0.05)
(0.180698 0.605866 0.05)
(0.234532 0.319203 0.05)
(0.1705 0.265904 0.05)
(0.153649 0.300947 0.05)
(0.209529 0.265083 0.05)
(0.468672 0.652142 0.05)
(0.173656 0.416066 0.05)
(0.235531 0.231404 0.05)
(0.276961 0.240455 0.05)
(0.427929 0.391254 0.05)
(0.298084 0.296246 0.05)
(0.643299 0.232659 0.05)
(0.629752 0.237685 0.05)
(0.335442 0.324418 0.05)
(0.751738 0.665259 0.05)
(0.783868 0.658602 0.05)
(0.791985 0.666631 0.05)
(0.667748 0.611163 0.05)
(0.724041 0.705022 0.05)
(0.799676 0.654234 0.05)
(0.528258 0.891808 0.05)
(0.825866 0.611154 0.05)
(0.829234 0.619445 0.05)
(0.426811 0.832106 0.05)
(0.832316 0.63417 0.05)
(0.25088 0.73945 0.05)
(0.188192 0.714736 0.05)
(0.823979 0.667993 0.05)
(0.510158 0.508163 0.05)
(0.505823 0.536123 0.05)
(0.733686 0.299202 0.05)
(0.494986 0.56415 0.05)
(0.759291 0.330992 0.05)
(0.759977 0.309194 0.05)
(0.211373 0.274255 0.05)
(0.785568 0.706028 0.05)
(0.703467 0.73516 0.05)
(0.830805 0.630584 0.05)
(0.631292 0.721407 0.05)
(0.500662 0.907214 0.05)
(0.422476 0.878759 0.05)
(0.602409 0.691687 0.05)
(0.495826 0.593409 0.05)
(0.512347 0.512279 0.05)
(0.461285 0.36616 0.05)
(0.511328 0.48086 0.05)
(0.549074 0.319146 0.05)
(0.729316 0.316688 0.05)
(0.509832 0.483971 0.05)
(0.584719 0.202036 0.05)
(0.684211 0.218103 0.05)
(0.715626 0.232407 0.05)
(0.764846 0.255154 0.05)
(0.63471 0.210143 0.05)
(0.763181 0.257893 0.05)
(0.811845 0.291792 0.05)
(0.227894 0.218839 0.05)
(0.485356 0.623975 0.05)
(0.228066 0.676098 0.05)
(0.431764 0.698375 0.05)
(0.196694 0.655115 0.05)
(0.225088 0.675739 0.05)
(0.416627 0.705736 0.05)
(0.734863 0.544348 0.05)
(0.751559 0.547707 0.05)
(0.807797 0.599241 0.05)
(0.770436 0.556597 0.05)
(0.591191 0.367314 0.05)
(0.651874 0.342413 0.05)
(0.787509 0.567445 0.05)
(0.770677 0.565302 0.05)
(0.801494 0.62817 0.05)
(0.550035 0.445622 0.05)
(0.811897 0.620189 0.05)
(0.684306 0.347629 0.05)
(0.63733 0.341094 0.05)
(0.211809 0.664568 0.05)
(0.242023 0.545288 0.05)
(0.194392 0.626691 0.05)
(0.377056 0.67961 0.05)
(0.32322 0.680577 0.05)
(0.388406 0.696405 0.05)
(0.723625 0.614798 0.05)
(0.724031 0.620761 0.05)
(0.764101 0.602301 0.05)
(0.48916 0.617904 0.05)
(0.442666 0.694381 0.05)
(0.478707 0.429187 0.05)
(0.213111 0.227327 0.05)
(0.367677 0.669996 0.05)
(0.232348 0.672228 0.05)
(0.556085 0.504333 0.05)
(0.5154 0.527322 0.05)
(0.433517 0.799288 0.05)
(0.397656 0.838993 0.05)
(0.190461 0.727371 0.05)
(0.293258 0.760678 0.05)
(0.714288 0.283485 0.05)
(0.742702 0.281368 0.05)
(0.691664 0.245847 0.05)
(0.654453 0.727911 0.05)
(0.520155 0.51582 0.05)
(0.821096 0.670811 0.05)
(0.214042 0.279607 0.05)
(0.658243 0.255874 0.05)
(0.408297 0.422794 0.05)
(0.696252 0.289499 0.05)
(0.744732 0.336839 0.05)
(0.752536 0.339358 0.05)
(0.82407 0.316364 0.05)
(0.813021 0.299056 0.05)
(0.828752 0.34994 0.05)
(0.687869 0.669339 0.05)
(0.632169 0.700041 0.05)
(0.661219 0.702651 0.05)
(0.388365 0.472132 0.05)
(0.405355 0.479703 0.05)
(0.21265 0.285672 0.05)
(0.490809 0.915126 0.05)
(0.554982 0.702534 0.05)
(0.399612 0.85974 0.05)
(0.485565 0.257485 0.05)
(0.333355 0.37694 0.05)
(0.503998 0.239243 0.05)
)


// ************************************************************************* //
