/*--------------------------------*- C++ -*----------------------------------*\
| =========                 |                                                 |
| \\      /  F ield         | OpenFOAM: The Open Source CFD Toolbox           |
|  \\    /   O peration     | Version:  v1806                                 |
|   \\  /    A nd           | Web:      www.OpenFOAM.com                      |
|    \\/     M anipulation  |                                                 |
\*---------------------------------------------------------------------------*/
FoamFile
{
    version     2.0;
    format      ascii;
    class       volScalarField;
    location    "0.08";
    object      p;
}
// * * * * * * * * * * * * * * * * * * * * * * * * * * * * * * * * * * * * * //

dimensions      [0 2 -2 0 0 0 0];


internalField   nonuniform List<scalar> 
5400
(
9.01235
8.54084
8.26033
8.06654
7.87847
7.67209
7.43341
7.15127
6.81783
6.4245
5.96537
5.4347
4.82744
4.13964
3.36895
2.51511
1.58045
0.570236
-0.506978
-1.63922
-2.81111
-4.00495
-5.19938
-6.37216
-7.5003
-8.56124
-9.53398
-10.4001
-11.1447
-11.7569
-12.2301
-12.5624
-12.756
-12.8168
-12.7542
-12.5799
-12.3074
-11.9511
-11.5259
-11.0466
-10.5269
-9.9797
-9.41652
-8.84736
-8.28071
-7.72359
-7.18163
-6.65914
-6.15931
-5.68433
-5.23556
-4.81366
-4.41875
-4.05044
-3.70808
-3.39073
-3.09729
-2.82655
-2.57722
-2.34798
-2.1375
-1.94451
-1.76773
-1.60596
-1.45804
-1.32285
-1.19936
-1.0866
-0.983684
-0.889747
-0.803997
-0.725703
-0.654198
-0.588861
-0.529095
-0.47435
-0.424146
-0.37804
-0.335589
-0.296379
-0.260051
-0.226269
-0.194703
-0.16504
-0.136998
-0.110307
-0.0847027
-0.0599228
-0.0357161
-0.0118637
8.62216
8.44591
8.26672
8.10099
7.92482
7.72296
7.48699
7.20842
6.87792
6.48862
6.03387
5.50723
4.90307
4.21696
3.44608
2.58976
1.64993
0.6316
-0.456781
-1.60322
-2.79226
-4.00468
-5.21939
-6.41302
-7.56155
-8.64143
-9.6307
-10.5102
-11.2645
-11.8824
-12.3574
-12.6876
-12.8758
-12.9285
-12.8555
-12.6693
-12.384
-12.0146
-11.5766
-11.085
-10.554
-9.99668
-9.42463
-8.84786
-8.27487
-7.71261
-7.16661
-6.64109
-6.13909
-5.66268
-5.2131
-4.79087
-4.39603
-4.02813
-3.68641
-3.36988
-3.07738
-2.80763
-2.55935
-2.33118
-2.1218
-1.92986
-1.7541
-1.59331
-1.44632
-1.31204
-1.18941
-1.07745
-0.975262
-0.882028
-0.796948
-0.719273
-0.648333
-0.58352
-0.524249
-0.469972
-0.420202
-0.374493
-0.332414
-0.293562
-0.257567
-0.224091
-0.192814
-0.16344
-0.135673
-0.109237
-0.0838783
-0.0593477
-0.0354005
-0.0117722
8.52805
8.43566
8.30724
8.16594
8.00417
7.81223
7.58542
7.31667
6.99698
6.61899
6.17489
5.65765
5.06081
4.37896
3.60833
2.74728
1.79695
0.761762
-0.350116
-1.52653
-2.75134
-4.00446
-5.26296
-6.50154
-7.69403
-8.81465
-9.83944
-10.7476
-11.5223
-12.152
-12.63
-12.9551
-13.1309
-13.165
-13.069
-12.8565
-12.5431
-12.1453
-11.6794
-11.1615
-10.6064
-10.0275
-9.43672
-8.84405
-8.25794
-7.68519
-7.13107
-6.59956
-6.0934
-5.6144
-5.16349
-4.74099
-4.34667
-3.97992
-3.63982
-3.32525
-3.03493
-2.76751
-2.52161
-2.29583
-2.0888
-1.89918
-1.72567
-1.56701
-1.42205
-1.28967
-1.16885
-1.0586
-0.958006
-0.866241
-0.782539
-0.706156
-0.636405
-0.572685
-0.514438
-0.461119
-0.412237
-0.367348
-0.326034
-0.287898
-0.252575
-0.21973
-0.189048
-0.160231
-0.133002
-0.107087
-0.0822282
-0.0581875
-0.0347262
-0.0115548
8.51725
8.46274
8.36911
8.25373
8.1123
7.93796
7.72823
7.47713
7.17591
6.81614
6.38958
5.88804
5.30369
4.62969
3.86068
2.99355
2.02805
0.967605
-0.180157
-1.40292
-2.68357
-4.00052
-5.32814
-6.63794
-7.90016
-9.08542
-10.1664
-11.1196
-11.9265
-12.5742
-13.0563
-13.3723
-13.5275
-13.5317
-13.3984
-13.144
-12.7861
-12.3433
-11.8337
-11.2746
-10.6821
-10.0701
-9.45046
-8.83355
-8.22762
-7.63917
-7.07308
-6.53285
-6.02078
-5.53822
-5.0857
-4.66313
-4.26996
-3.90526
-3.56789
-3.25651
-2.96971
-2.70599
-2.46386
-2.24185
-2.03851
-1.85248
-1.68243
-1.52709
-1.38525
-1.25582
-1.13777
-1.03011
-0.931953
-0.84245
-0.760837
-0.686394
-0.618458
-0.556417
-0.499712
-0.44783
-0.400295
-0.356651
-0.316484
-0.27942
-0.24511
-0.213216
-0.183425
-0.155451
-0.12902
-0.103875
-0.0797605
-0.0564443
-0.0336962
-0.0112164
8.56467
8.52752
8.45841
8.36768
8.24986
8.09908
7.91366
7.68802
7.41323
7.08009
6.67928
6.20114
5.63605
4.97509
4.21071
3.33755
2.35336
1.25989
0.0638361
-1.22248
-2.5808
-3.9871
-5.41226
-6.82302
-8.18438
-9.46158
-10.6224
-11.6392
-12.4907
-13.1629
-13.6494
-13.9512
-14.0758
-14.0362
-13.8494
-13.535
-13.1143
-12.6083
-12.0377
-11.4213
-10.7777
-10.1203
-9.46174
-8.81234
-8.1801
-7.57104
-6.98947
-6.43821
-5.9189
-5.43223
-4.97814
-4.55604
-4.16489
-3.8034
-3.47007
-3.16331
-2.88148
-2.62293
-2.38603
-2.16923
-1.97099
-1.78987
-1.62452
-1.47366
-1.33606
-1.21062
-1.0963
-0.992142
-0.897248
-0.810776
-0.731966
-0.660127
-0.594612
-0.534813
-0.48018
-0.430219
-0.384465
-0.342475
-0.303843
-0.268207
-0.235232
-0.20459
-0.175981
-0.149127
-0.123748
-0.0996234
-0.076494
-0.0541308
-0.032319
-0.0107608
8.65168
8.62518
8.5753
8.50822
8.41658
8.29445
8.1402
7.94805
7.70852
7.41149
7.04614
6.60094
6.06392
5.42345
4.66894
3.79189
2.78707
1.65375
0.396997
-0.971222
-2.43136
-3.95621
-5.51203
-7.05878
-8.55404
-9.95542
-11.2236
-12.3254
-13.2357
-13.9387
-14.4286
-14.7084
-14.7894
-14.6889
-14.4287
-14.0333
-13.5282
-12.9386
-12.2882
-11.5984
-10.8877
-10.1721
-9.46431
-8.77438
-8.10978
-7.47578
-6.87584
-6.31186
-5.78459
-5.29383
-4.83877
-4.41811
-4.03027
-3.67344
-3.34573
-3.04521
-2.77
-2.51824
-2.28815
-2.07805
-1.88634
-1.71149
-1.55213
-1.40694
-1.2747
-1.1543
-1.04469
-0.944908
-0.854093
-0.771421
-0.69613
-0.627542
-0.565041
-0.508038
-0.455989
-0.408413
-0.364867
-0.324925
-0.288198
-0.254335
-0.223012
-0.193919
-0.16677
-0.141276
-0.117234
-0.094373
-0.0724627
-0.051279
-0.0306191
-0.0101953
8.76509
8.74752
8.71519
8.67221
8.60977
8.52152
8.40549
8.25539
8.06101
7.81092
7.49261
7.0922
6.59482
5.98527
5.24896
4.3731
3.34818
2.16973
0.840107
-0.629738
-2.219
-3.89642
-5.62271
-7.34793
-9.01952
-10.5844
-11.9932
-13.2051
-14.1897
-14.9295
-15.4195
-15.6663
-15.6862
-15.5028
-15.1447
-14.6426
-14.0279
-13.3307
-12.5788
-11.7965
-11.0032
-10.2167
-9.44964
-8.71163
-8.00931
-7.34689
-6.7266
-6.14911
-5.61397
-5.11991
-4.66514
-4.24751
-3.86473
-3.51442
-3.19422
-2.90184
-2.63509
-2.3919
-2.17029
-1.96848
-1.78479
-1.61763
-1.46556
-1.32725
-1.2015
-1.08717
-0.983224
-0.888722
-0.802801
-0.724666
-0.653581
-0.588884
-0.529974
-0.476293
-0.427321
-0.38259
-0.341668
-0.304155
-0.269686
-0.237927
-0.208563
-0.1813
-0.155861
-0.132029
-0.109542
-0.0881643
-0.0676906
-0.047906
-0.0286041
-0.00952676
8.8947
8.88627
8.87169
8.85444
8.8248
8.77601
8.70569
8.60697
8.46876
8.27821
8.02082
7.68
7.2373
6.6731
5.9676
5.10219
4.06136
2.83506
1.42128
-0.171329
-1.92132
-3.79334
-5.73733
-7.69373
-9.59485
-11.3723
-12.9629
-14.3149
-15.3915
-16.1729
-16.6563
-16.8536
-16.7887
-16.4939
-16.0067
-15.3664
-14.6118
-13.7793
-12.9011
-12.0053
-11.1133
-10.2428
-9.40675
-8.61386
-7.86951
-7.17635
-6.53494
-5.94432
-5.40251
-4.9069
-4.45449
-4.04217
-3.6668
-3.32535
-3.01494
-2.73287
-2.47664
-2.24395
-2.03266
-1.84082
-1.6667
-1.50866
-1.36522
-1.23503
-1.11687
-1.00964
-0.912311
-0.823953
-0.743726
-0.67086
-0.604647
-0.54445
-0.489692
-0.43984
-0.394407
-0.352949
-0.315049
-0.280332
-0.248456
-0.21911
-0.191998
-0.166836
-0.143398
-0.121442
-0.100738
-0.0810639
-0.0622282
-0.044038
-0.0262996
-0.00876076
9.03193
9.03303
9.03712
9.04785
9.05507
9.05174
9.03514
8.9981
8.92838
8.8119
8.63205
8.36915
8.00058
7.50132
6.84493
6.0051
4.958
3.68535
2.17819
0.440783
-1.50571
-3.62083
-5.84431
-8.09967
-10.2988
-12.3518
-14.176
-15.7048
-16.8929
-17.7188
-18.1835
-18.3073
-18.1249
-17.681
-17.025
-16.2074
-15.2765
-14.276
-13.2431
-12.212
-11.2034
-10.2359
-9.32178
-8.46844
-7.67924
-6.95463
-6.29293
-5.69105
-5.14513
-4.65087
-4.2039
-3.79996
-3.43501
-3.10528
-2.80735
-2.53807
-2.29467
-2.07459
-1.87554
-1.69546
-1.53252
-1.38507
-1.2516
-1.13076
-1.02133
-0.922212
-0.832422
-0.751053
-0.677288
-0.610384
-0.549679
-0.494568
-0.444498
-0.398963
-0.357515
-0.319738
-0.285242
-0.253669
-0.224704
-0.19806
-0.173456
-0.150669
-0.129457
-0.1096
-0.0908926
-0.073131
-0.0561302
-0.0397157
-0.0237176
-0.00790179
9.17023
9.17876
9.20232
9.24364
9.29206
9.34048
9.38605
9.4217
9.43424
9.40848
9.32579
9.16328
8.89365
8.48549
7.90412
7.11316
6.07738
4.76658
3.16085
1.25651
-0.927896
-3.34702
-5.927
-8.56959
-11.1568
-13.5677
-15.6921
-17.4426
-18.7636
-19.6328
-20.0584
-20.0734
-19.7286
-19.0856
-18.2098
-17.1662
-16.0147
-14.8086
-13.5925
-12.3985
-11.2544
-10.1772
-9.17747
-8.26001
-7.42529
-6.67069
-5.99159
-5.38222
-4.83635
-4.34775
-3.91043
-3.51887
-3.16805
-2.85345
-2.5711
-2.31745
-2.08938
-1.88419
-1.69943
-1.53296
-1.38287
-1.2475
-1.12534
-1.01506
-0.915453
-0.825458
-0.744109
-0.670543
-0.603979
-0.543716
-0.489126
-0.439649
-0.394766
-0.35401
-0.316963
-0.28324
-0.252486
-0.224381
-0.198623
-0.174939
-0.153122
-0.132936
-0.114167
-0.0966135
-0.08009
-0.0644202
-0.0494367
-0.0349777
-0.0208897
-0.00696099
9.29493
9.31155
9.35634
9.43117
9.5253
9.6319
9.74837
9.86817
9.97783
10.0615
10.0987
10.0637
9.9241
9.64136
9.1708
8.46322
7.46793
6.13765
4.43555
2.3441
-0.125268
-2.92364
-5.95936
-9.10726
-12.2036
-15.0828
-17.594
-19.6219
-21.0979
-22.0016
-22.3544
-22.2093
-21.6401
-20.7314
-19.5703
-18.2397
-16.8141
-15.3563
-13.92
-12.539
-11.2414
-10.0434
-8.95272
-7.97026
-7.0923
-6.31208
-5.6211
-5.01029
-4.4706
-3.99353
-3.57133
-3.19714
-2.86491
-2.56942
-2.30616
-2.07122
-1.86126
-1.67336
-1.50502
-1.35405
-1.2185
-1.09671
-0.98721
-0.888684
-0.799974
-0.72005
-0.648003
-0.583016
-0.524355
-0.47136
-0.423456
-0.380126
-0.340898
-0.305345
-0.273085
-0.243769
-0.21708
-0.192746
-0.170406
-0.149968
-0.131165
-0.113792
-0.0976645
-0.0826014
-0.0684353
-0.0550176
-0.042208
-0.0298621
-0.017839
-0.00594689
9.38905
9.41834
9.48695
9.59825
9.74234
9.91328
10.1095
10.3247
10.5469
10.7601
10.9431
11.0675
11.0962
10.983
10.6717
10.0971
9.18814
7.87327
6.08994
3.79721
0.990998
-2.28095
-5.9088
-9.71692
-13.4881
-16.9861
-19.9991
-22.3723
-24.0232
-24.9396
-25.1657
-24.7856
-23.906
-22.6434
-21.1124
-19.4189
-17.6551
-15.896
-14.1975
-12.6012
-11.1328
-9.80555
-8.62211
-7.57777
-6.6629
-5.86514
-5.17114
-4.5677
-4.04253
-3.58462
-3.18436
-2.83351
-2.52507
-2.25318
-2.0129
-1.80003
-1.61106
-1.44299
-1.29326
-1.15968
-1.04036
-0.933639
-0.838097
-0.752483
-0.675695
-0.606762
-0.544834
-0.489153
-0.439043
-0.39391
-0.353229
-0.316523
-0.283367
-0.253388
-0.226253
-0.20165
-0.179302
-0.15888
-0.140346
-0.123371
-0.107781
-0.0934077
-0.0800919
-0.0676816
-0.0560344
-0.0450215
-0.0345236
-0.0244199
-0.0145908
-0.0048668
9.44611
9.48783
9.58146
9.73136
9.92877
10.1692
10.4527
10.7739
11.1243
11.4883
11.8452
12.1654
12.4083
12.5202
12.4322
12.0602
11.3068
10.0669
8.2394
5.74476
2.54874
-1.3114
-5.70466
-10.3983
-15.0809
-19.4082
-23.0767
-25.8769
-27.7143
-28.5977
-28.6119
-27.8878
-26.5792
-24.8453
-22.8359
-20.6851
-18.5055
-16.3843
-14.3821
-12.5425
-10.8887
-9.42792
-8.15539
-7.05798
-6.11791
-5.31553
-4.63135
-4.04734
-3.54755
-3.11829
-2.7481
-2.42752
-2.14874
-1.90538
-1.69222
-1.50493
-1.33995
-1.19426
-1.06534
-0.951066
-0.849606
-0.759384
-0.679057
-0.607462
-0.543571
-0.486484
-0.435427
-0.389719
-0.348754
-0.312009
-0.279015
-0.249355
-0.222658
-0.1986
-0.176888
-0.157255
-0.139452
-0.123359
-0.108736
-0.0953952
-0.0831851
-0.0719677
-0.0616104
-0.0519911
-0.0429958
-0.0345165
-0.0264517
-0.0187029
-0.0111769
-0.00373082
9.45327
9.50723
9.62625
9.81571
10.0683
10.3816
10.7579
11.1941
11.6872
12.2226
12.7826
13.3388
13.849
14.2535
14.4715
14.3974
13.9012
12.8328
11.0344
8.36395
4.73119
0.142101
-5.25655
-11.1512
-17.0901
-22.5484
-27.0789
-30.399
-32.4122
-33.1755
-32.8435
-31.6182
-29.7171
-27.3573
-24.731
-22.0066
-19.3185
-16.7687
-14.4177
-12.3085
-10.4591
-8.86745
-7.51727
-6.38343
-5.437
-4.64891
-3.99221
-3.4433
-2.98235
-2.59308
-2.26238
-1.9798
-1.73702
-1.52742
-1.34569
-1.18756
-1.04955
-0.928758
-0.822785
-0.729633
-0.647606
-0.575243
-0.511306
-0.454738
-0.404621
-0.36016
-0.320669
-0.285545
-0.254261
-0.226366
-0.201467
-0.179214
-0.159301
-0.141453
-0.12541
-0.110997
-0.0980424
-0.0863778
-0.0758414
-0.0662888
-0.0576007
-0.0496715
-0.0423977
-0.0356829
-0.0294412
-0.0235918
-0.0180566
-0.0127591
-0.00762897
-0.00255067
9.39746
9.46322
9.60704
9.83553
10.1433
10.5305
11.003
11.5628
12.2065
12.9308
13.7221
14.5558
15.3918
16.1685
16.7955
17.1461
17.0524
16.306
14.6679
11.8977
7.80406
2.31902
-4.41567
-11.9711
-19.6924
-26.7242
-32.3939
-36.3254
-38.4527
-38.9352
-38.0484
-36.0971
-33.3783
-30.1919
-26.7724
-23.3335
-20.0374
-16.9795
-14.2314
-11.8296
-9.78224
-8.07266
-6.66743
-5.52443
-4.59969
-3.85215
-3.24606
-2.75184
-2.34582
-2.00953
-1.72868
-1.49236
-1.29217
-1.1216
-0.975595
-0.850116
-0.741939
-0.648431
-0.567414
-0.497088
-0.435939
-0.382674
-0.336197
-0.295583
-0.260043
-0.228895
-0.201553
-0.177522
-0.156373
-0.137732
-0.121279
-0.10673
-0.0938685
-0.0824141
-0.0723009
-0.0633288
-0.055361
-0.0482748
-0.0419577
-0.0363134
-0.0312603
-0.0267231
-0.022627
-0.0189041
-0.0154961
-0.0123508
-0.009417
-0.00664221
-0.00397852
-0.00133661
9.26602
9.34265
9.50947
9.77454
10.1347
10.5934
11.1606
11.8436
12.6441
13.5703
14.6168
15.767
16.9889
18.2262
19.3856
20.3237
20.8336
20.6358
19.3806
16.6757
12.1542
5.58859
-2.94985
-12.9154
-23.2041
-32.4702
-39.6415
-44.2375
-46.307
-46.2208
-44.4581
-41.4675
-37.615
-33.3504
-28.9132
-24.5876
-20.5626
-16.9208
-13.7293
-11.0188
-8.7829
-6.98324
-5.56122
-4.45055
-3.58718
-2.91515
-2.38881
-1.97265
-1.63989
-1.37072
-1.15061
-0.968911
-0.817778
-0.691311
-0.585013
-0.495396
-0.419693
-0.355651
-0.301406
-0.255416
-0.21641
-0.183321
-0.155233
-0.131369
-0.111084
-0.0938327
-0.0791447
-0.0666372
-0.0559815
-0.0469052
-0.0391637
-0.0325305
-0.0268665
-0.0221153
-0.0180801
-0.01467
-0.0118033
-0.00940306
-0.00740343
-0.00575385
-0.00441093
-0.00333135
-0.0024732
-0.00180103
-0.0012856
-0.000899696
-0.000616928
-0.000410771
-0.000258824
-9.93253e-05
9.04729
9.13321
9.31981
9.61673
10.0234
10.5468
11.202
12.0032
12.9627
14.0881
15.4043
16.9009
18.5636
20.3516
22.182
23.9062
25.2866
25.968
25.4562
23.1343
18.3418
10.5296
-0.451978
-13.9319
-28.1955
-40.7345
-49.8497
-55.0243
-56.6287
-55.4473
-52.3338
-47.9115
-42.4409
-36.8114
-31.0902
-25.694
-20.7862
-16.475
-12.7947
-9.76836
-7.37045
-5.53027
-4.15155
-3.13349
-2.38537
-1.83348
-1.42198
-1.11048
-0.870699
-0.683127
-0.534344
-0.415087
-0.318853
-0.240949
-0.177857
-0.126874
-0.085865
-0.0531
-0.0271419
-0.00678043
0.00898608
0.0209891
0.0299333
0.0364114
0.0409004
0.0437914
0.0454283
0.0460777
0.045979
0.0452789
0.0441533
0.0426421
0.0408633
0.038878
0.036753
0.0345246
0.0322218
0.0298723
0.0274956
0.0251012
0.0226947
0.0202834
0.0178728
0.0154643
0.0130581
0.0106569
0.0082633
0.00587757
0.00349523
0.00114947
8.73135
8.82426
9.02583
9.34732
9.79078
10.367
11.0968
12.002
13.1062
14.4362
16.0065
17.8611
20.0022
22.4195
25.0619
27.7973
30.3821
32.4022
33.194
31.8219
27.159
18.028
3.68583
-15.2234
-35.9166
-53.3282
-64.7903
-70.0499
-70.3196
-67.2175
-61.8731
-55.4238
-48.157
-40.6102
-33.1651
-26.4476
-20.5661
-15.5019
-11.2851
-7.94526
-5.4364
-3.63739
-2.39296
-1.55208
-0.989597
-0.612265
-0.355523
-0.17695
-0.0496862
0.0429107
0.111142
0.16149
0.198163
0.224049
0.241279
0.251515
0.256107
0.256171
0.252658
0.246399
0.238096
0.228324
0.217547
0.206148
0.194438
0.182646
0.170991
0.159551
0.148573
0.137964
0.127766
0.118038
0.108786
0.100005
0.0916793
0.0837823
0.0762894
0.0691763
0.0624135
0.0559671
0.0498048
0.043897
0.0382137
0.0327236
0.0273977
0.0222121
0.0171431
0.012165
0.00724799
0.00239756
8.31079
8.40767
8.61783
8.95396
9.42058
10.0322
10.8151
11.799
13.0185
14.5153
16.3359
18.5261
21.1493
24.2388
27.8137
31.784
35.9504
39.9074
42.833
43.3565
39.689
29.4759
10.4745
-17.3876
-49.3294
-73.9181
-87.5554
-91.3686
-88.4859
-81.7794
-73.8675
-64.7043
-54.6054
-44.6677
-34.9348
-26.6699
-19.7426
-13.8567
-9.03448
-5.38452
-2.85033
-1.22341
-0.248697
0.299303
0.587901
0.728332
0.788649
0.807556
0.805573
0.79283
0.774032
0.751297
0.72558
0.697407
0.667198
0.63539
0.60246
0.568885
0.535109
0.501558
0.468614
0.436611
0.405741
0.376172
0.348031
0.321356
0.296368
0.272883
0.250761
0.230126
0.210879
0.192942
0.176236
0.160673
0.146165
0.132623
0.11997
0.108128
0.0970132
0.0865482
0.0766611
0.0672858
0.0583579
0.0498145
0.041598
0.0336562
0.025938
0.0183916
0.0109635
0.00363294
7.78156
7.8787
8.08959
8.42799
8.90036
9.52431
10.3309
11.3569
12.6477
14.2614
16.2694
18.7569
21.8159
25.5368
30.1128
35.4863
41.5811
48.1759
54.3732
58.194
57.1563
46.4048
20.4593
-23.1185
-76.2203
-110.223
-123.368
-121.463
-111.593
-100.254
-86.369
-74.0616
-61.5901
-49.1446
-36.2469
-26.097
-18.1853
-11.4442
-5.85884
-1.87328
0.547054
1.79068
2.29546
2.39698
2.30771
2.14666
1.97312
1.81212
1.67074
1.54796
1.44013
1.34348
1.25495
1.17239
1.09438
1.02014
0.949276
0.88165
0.817223
0.75602
0.698105
0.64369
0.592584
0.544761
0.500194
0.458777
0.420193
0.384486
0.35143
0.320883
0.292667
0.266607
0.242533
0.220276
0.199672
0.180574
0.162844
0.146348
0.130956
0.116544
0.103002
0.0902257
0.0781156
0.0665775
0.0555252
0.0448796
0.0345626
0.024497
0.0146063
0.00484404
7.14364
7.23684
7.43945
7.76577
8.22336
8.83168
9.62494
10.6454
11.947
13.6022
15.706
18.3817
21.7879
26.1306
31.527
38.3299
46.6982
56.5765
67.1158
75.8796
79.7465
65.8971
24.9407
-49.3712
-138.379
-178.346
-179.546
-162.655
-139.15
-122.937
-108.303
-95.9649
-71.9277
-54.5852
-35.624
-24.1731
-15.8228
-8.21634
-1.50216
2.90576
4.95456
5.46162
5.20384
4.66606
4.08936
3.57229
3.14216
2.79512
2.51573
2.28674
2.09389
1.92661
1.77765
1.64224
1.51738
1.40121
1.29263
1.19102
1.09595
1.00709
0.924028
0.847424
0.776171
0.71017
0.64916
0.592913
0.541083
0.493404
0.449572
0.409295
0.372287
0.338275
0.306998
0.278206
0.251664
0.227157
0.204488
0.183466
0.163913
0.145665
0.128573
0.112495
0.0972967
0.0828519
0.0690467
0.0557756
0.042935
0.0304235
0.0181424
0.00601969
6.40162
6.48643
6.67116
6.96992
7.39022
7.95165
8.6892
9.64717
10.884
12.4808
14.5487
17.2397
20.7599
25.3829
31.434
39.3995
49.8145
63.3574
79.7082
96.107
102.738
76.3087
-0.713585
-154.88
-287.653
-297.956
-258.233
-211.406
-162.728
-150.17
-136.361
-127.972
-116.995
-87.405
-47.6123
-23.0818
-13.8844
-4.31533
4.5603
9.50734
10.6133
9.75968
8.33206
6.94539
5.79537
4.90131
4.22196
3.7063
3.30727
2.98705
2.72025
2.49006
2.28581
2.10085
1.93115
1.77428
1.62875
1.49364
1.36833
1.25228
1.14519
1.04575
0.954374
0.870401
0.7933
0.722591
0.657791
0.598454
0.544138
0.49442
0.448899
0.407199
0.368967
0.333872
0.301609
0.271899
0.244482
0.219111
0.195562
0.17363
0.153129
0.133881
0.115716
0.0984811
0.0820339
0.0662424
0.0509779
0.0361165
0.0215391
0.00714918
5.56495
5.63703
5.7944
6.05017
6.41039
6.89269
7.52976
8.3635
9.45043
10.8711
12.74
15.2202
18.5442
23.0419
29.1278
37.5826
49.4349
65.6016
87.1903
109.307
111.88
60.0837
-85.7456
-391.87
-547.142
-476.423
-346.303
-262.893
-221.341
-168.72
-222.803
-275.286
-264.553
-187.155
-100.96
-43.5911
-21.2908
-3.03628
12.8283
18.3769
17.5696
14.3772
11.3162
8.94025
7.21735
5.99694
5.12623
4.49318
4.01488
3.6304
3.30743
3.02583
2.77347
2.54336
2.33151
2.13561
1.95423
1.78635
1.63126
1.48831
1.35682
1.23591
1.1251
1.0237
0.930996
0.846317
0.769009
0.698459
0.634082
0.575325
0.521671
0.472641
0.427786
0.386696
0.348997
0.314345
0.282421
0.252926
0.225589
0.200167
0.176434
0.154178
0.1332
0.113319
0.0943656
0.0761824
0.0586168
0.0415239
0.0247659
0.00822243
4.6479
4.70333
4.82485
5.02362
5.30282
5.6759
6.1698
6.81893
7.67011
8.79178
10.284
12.2934
15.0364
18.8309
24.1136
31.5949
42.6303
58.4333
79.4586
101.98
79.1969
-20.295
-225.705
-626.222
-767.863
-623.026
-469.636
-357.908
-302.706
-296.334
-346.673
-415.005
-372.875
-298.558
-201.179
-107.242
-50.9036
-8.88933
20.6183
28.3574
24.482
18.1583
13.3889
10.1881
8.08759
6.714
5.79132
5.13062
4.62173
4.20741
3.85018
3.53028
3.23749
2.96668
2.71528
2.48192
2.26572
2.06594
1.88187
1.71275
1.55774
1.4159
1.28637
1.16824
1.06062
0.962628
0.873438
0.792268
0.718385
0.651106
0.589801
0.533885
0.482821
0.436119
0.393335
0.354064
0.317925
0.284575
0.253699
0.225016
0.198262
0.173194
0.149585
0.127228
0.105928
0.0855035
0.0657809
0.0465963
0.0277938
0.00923002
3.669
3.7047
3.78365
3.91433
4.09572
4.33503
4.65034
5.06361
5.60427
6.31647
7.26611
8.55154
10.3209
12.8006
16.3488
20.795
27.7996
36.4087
41.8626
30.7175
-26.3034
-151.775
-376.311
-714.299
-851.778
-707.52
-569.913
-494.731
-406.092
-359.282
-367.205
-385.944
-364.023
-360.943
-377.062
-303.744
-156.764
-29.7337
27.8085
35.3716
27.5095
19.5725
13.636
10.1307
8.13018
6.92978
6.14943
5.58273
5.12359
4.72131
4.35189
4.00525
3.67803
3.36963
3.08039
2.81064
2.56047
2.32958
2.11736
1.92297
1.74539
1.5835
1.43616
1.30222
1.18056
1.07009
0.969812
0.878762
0.79606
0.720896
0.652524
0.590258
0.533475
0.481612
0.434158
0.390643
0.350635
0.313744
0.279617
0.247937
0.218406
0.19075
0.164718
0.140078
0.116613
0.0941197
0.072405
0.051288
0.0305958
0.010163
2.65013
2.66419
2.6964
2.75205
2.82501
2.91482
3.02836
3.17151
3.35037
3.57501
3.86081
4.22909
4.70593
5.31061
6.01128
6.53376
6.37602
2.57523
-16.0956
-72.5181
-185.874
-354.969
-508.275
-608.893
-663.832
-632.635
-588.043
-525.562
-396.249
-343.683
-366.988
-357.756
-326.106
-361.374
-442.808
-450.238
-293.453
-116.423
-23.2015
8.27751
13.1045
11.9197
9.59211
8.03386
7.1683
6.64288
6.25625
5.90793
5.55751
5.19587
4.82689
4.45843
4.09825
3.75249
3.42537
3.11937
2.83565
2.57433
2.33486
2.11626
1.91726
1.73648
1.57249
1.42388
1.28926
1.16734
1.05692
0.956872
0.86617
0.783873
0.70912
0.64113
0.579198
0.522692
0.471037
0.423706
0.380219
0.340144
0.303093
0.268712
0.236674
0.206681
0.178458
0.151751
0.126323
0.101953
0.07843
0.0555574
0.0331468
0.0110127
1.61516
1.60706
1.5914
1.57013
1.5317
1.46743
1.37207
1.23391
1.03313
0.741448
0.316484
-0.309425
-1.25115
-2.71861
-5.12694
-9.37796
-17.4335
-34.4695
-73.4541
-171.664
-379.433
-595.483
-676.645
-516.903
-313.349
-313.572
-460.144
-485.092
-405.732
-366.084
-371.794
-385.932
-391.505
-439.399
-523.36
-522.813
-377.226
-204.043
-102.759
-28.759
-7.08168
0.0467218
3.13656
4.75308
5.67167
6.13996
6.29155
6.2187
5.99333
5.67221
5.29803
4.90129
4.50279
4.11591
3.7487
3.4055
3.08819
2.79704
2.53136
2.28982
2.07082
1.87259
1.69339
1.53147
1.3852
1.25305
1.13362
1.02561
0.927851
0.83928
0.758929
0.685925
0.619488
0.558921
0.50359
0.452917
0.406383
0.363518
0.3239
0.287143
0.252896
0.220839
0.190678
0.16214
0.134973
0.108935
0.083803
0.0593668
0.0354238
0.0117714
0.588437
0.559123
0.497706
0.403016
0.258435
0.047571
-0.246183
-0.651101
-1.21134
-1.99116
-3.08669
-4.64732
-6.91502
-10.3003
-15.5396
-24.0901
-38.8698
-67.035
-120.746
-230.086
-402.872
-619.062
-739.906
-565.405
-194.854
-34.8585
-286.348
-514.799
-579.763
-537.894
-440.326
-413.026
-493.333
-622.708
-720.251
-717.122
-500.398
-271.049
-151.539
-63.1713
-25.764
-11.4575
-3.04899
1.76388
4.47432
5.90096
6.53153
6.67276
6.51966
6.19827
5.78945
5.34446
4.8948
4.45909
4.04764
3.66547
3.31437
2.99416
2.70359
2.44075
2.20351
1.98963
1.79693
1.62336
1.46697
1.32601
1.19886
1.08407
0.980327
0.886446
0.801365
0.724132
0.653901
0.589912
0.53148
0.477985
0.428873
0.383641
0.341839
0.303057
0.266923
0.233098
0.201273
0.17116
0.142488
0.115006
0.0884781
0.0626832
0.0374071
0.0124323
-0.406856
-0.45508
-0.557097
-0.716652
-0.954444
-1.29304
-1.75806
-2.39085
-3.25453
-4.44084
-6.08585
-8.39685
-11.7032
-16.5454
-23.8168
-35.3365
-53.4986
-87.2798
-136.772
-233.616
-341.755
-474.244
-585.643
-560.979
-416.869
-142.269
-254.604
-526.902
-633.761
-551.01
-400.111
-377.388
-559.65
-774.957
-884.132
-776.623
-539.341
-309.958
-187.756
-93.0102
-46.7652
-20.8221
-6.9268
0.393196
4.41057
6.42016
7.25428
7.42057
7.21407
6.81086
6.31607
5.79144
5.27224
4.77761
4.31701
3.89417
3.50949
3.16154
2.84798
2.56601
2.31275
2.0854
1.8813
1.698
1.53328
1.38512
1.25172
1.13146
1.02292
0.924791
0.835933
0.755327
0.682066
0.615343
0.554427
0.498666
0.447474
0.400327
0.356751
0.316317
0.278637
0.243359
0.210159
0.178736
0.148809
0.120117
0.0924181
0.0654804
0.0390811
0.0129906
-1.35013
-1.41389
-1.5489
-1.76067
-2.07253
-2.51092
-3.10693
-3.90967
-4.99318
-6.46443
-8.47998
-11.2693
-15.2004
-20.8586
-29.1168
-41.9277
-60.6378
-93.0287
-143.926
-218.06
-292.256
-374.985
-470.435
-597.869
-662.89
-561.794
-488.048
-531.27
-502.265
-384.325
-224.712
-250.456
-431.731
-630.119
-737.565
-644.367
-449.245
-287.469
-198.748
-108.4
-54.9771
-22.653
-5.82909
1.91696
6.24212
8.09969
8.65269
8.54907
8.10905
7.51626
6.87252
6.23262
5.6247
5.06177
4.54839
4.08452
3.66773
3.29443
2.96067
2.66246
2.39602
2.15786
1.9448
1.75402
1.58297
1.42943
1.29139
1.16712
1.05507
0.953841
0.862233
0.779168
0.703693
0.634961
0.572212
0.514768
0.462024
0.413435
0.368514
0.326818
0.28795
0.251545
0.217269
0.184813
0.15389
0.124234
0.0955963
0.0677401
0.0404351
0.0134425
-2.22459
-2.29979
-2.45866
-2.70739
-3.07026
-3.57492
-4.25383
-5.15762
-6.36191
-7.97569
-10.1606
-13.1158
-17.2173
-22.9943
-31.3368
-43.3688
-62.6613
-87.6328
-141.012
-185.195
-269.97
-391.206
-522.74
-732.848
-919.245
-922.21
-807.977
-651.734
-401.6
-146.807
-46.8173
-148.97
-237.91
-331.524
-450.832
-495.686
-429.662
-340.527
-221.998
-117.635
-48.7814
-14.7795
1.27888
7.79051
10.4626
11.0824
10.7226
10.0251
9.1626
8.27475
7.42544
6.64149
5.9317
5.29597
4.72996
4.22759
3.7823
3.38766
3.03771
2.72706
2.45093
2.20513
1.98597
1.79024
1.61513
1.45819
1.31728
1.19055
1.07636
0.973253
0.879975
0.79541
0.718574
0.648591
0.584685
0.526164
0.47241
0.422871
0.377048
0.334493
0.294802
0.257604
0.22256
0.189355
0.157702
0.127333
0.0979968
0.069451
0.0414623
0.0137859
-3.01809
-3.10033
-3.27332
-3.54288
-3.93253
-4.4685
-5.18064
-6.11485
-7.3382
-8.94318
-11.0577
-13.9077
-17.7566
-23.0424
-30.4877
-41.0241
-57.2793
-79.1928
-121.931
-159.343
-262.12
-392.589
-622.339
-938.173
-1168.56
-1214.5
-1081.19
-801.626
-419.427
-127.969
-91.7894
-200.358
-155.828
-104.049
-273.229
-502.642
-565.699
-452.358
-258.774
-107.33
-24.9639
5.9965
15.324
17.3836
16.6331
15.037
13.3241
11.6866
10.2492
8.99726
7.91313
6.97555
6.1639
5.4598
4.84742
4.31327
3.846
3.43603
3.07531
2.75703
2.47545
2.2257
2.00366
1.80579
1.62906
1.47087
1.32898
1.20143
1.08654
0.982821
0.888991
0.803914
0.72659
0.656136
0.591767
0.532788
0.47858
0.428588
0.382313
0.339307
0.299163
0.261511
0.226009
0.192346
0.160234
0.129407
0.0996124
0.0706076
0.0421589
0.0140192
-3.72335
-3.80841
-3.98612
-4.26109
-4.65463
-5.18938
-5.88948
-6.79174
-7.94907
-9.43285
-11.342
-13.8223
-17.07
-21.3874
-27.2538
-35.4571
-47.2814
-65.6175
-92.9563
-137.3
-235.263
-404.666
-731.634
-1017.77
-1200.76
-1231.76
-1124.31
-858.713
-480.782
-227.8
-314.525
-380.994
-227.404
-28.2345
-108.129
-434.694
-660.1
-529.48
-251.821
-54.4529
24.5307
39.4262
35.6511
29.1706
23.4885
19.0855
15.7285
13.1656
11.1534
9.55178
8.25293
7.18213
6.28723
5.53096
4.88595
4.33161
3.85208
3.43495
3.07031
2.75017
2.46803
2.2185
1.99713
1.80015
1.62442
1.46723
1.32629
1.19963
1.08552
0.982487
0.889242
0.804654
0.727727
0.657585
0.593451
0.534638
0.480533
0.430588
0.384311
0.341261
0.301035
0.263267
0.22762
0.193787
0.161487
0.130456
0.100443
0.0712091
0.0425241
0.0141424
-4.33797
-4.42211
-4.59637
-4.86354
-5.24175
-5.74863
-6.40061
-7.22267
-8.24964
-9.52536
-11.1058
-13.0648
-15.4989
-18.5494
-22.4512
-27.5967
-34.9616
-45.6676
-64.4386
-94.0439
-160.49
-348.524
-684.84
-924.039
-931.168
-874.444
-860.243
-760.163
-492.086
-302.428
-461.189
-526.23
-386.042
-229.975
-201.708
-390.315
-519.122
-413.74
-157.473
36.1246
92.6519
78.8297
55.4531
39.2375
28.7979
22.0081
17.3857
14.0685
11.6402
9.79915
8.36122
7.21014
6.27
5.4895
4.83291
4.27453
3.79538
3.3811
3.02061
2.70519
2.42789
2.18307
1.96613
1.77323
1.60119
1.44731
1.30931
1.18524
1.0734
0.97235
0.880825
0.797721
0.72207
0.653018
0.58981
0.531777
0.478324
0.428919
0.383085
0.340392
0.300449
0.262899
0.227415
0.193699
0.161476
0.130491
0.100497
0.0712609
0.0425616
0.0141565
-4.86363
-4.94391
-5.10833
-5.35759
-5.70622
-6.16626
-6.74575
-7.45711
-8.31631
-9.33873
-10.5369
-11.917
-13.4729
-15.1826
-17.0144
-18.9697
-21.2481
-24.7528
-31.9634
-48.0428
-100.699
-233.34
-544.042
-711.312
-745.987
-696.155
-579.951
-539.914
-454.405
-373.153
-473.07
-594.864
-570.537
-579.986
-555.273
-480.15
-423.938
-292.607
-99.3252
62.3095
112.377
92.3239
61.6555
41.9565
30.1357
22.5565
17.5416
14.0502
11.5251
9.63512
8.1773
7.02359
6.09062
5.32247
4.68056
4.1375
3.67333
3.27315
2.92563
2.62195
2.35516
2.11969
1.91101
1.7254
1.55975
1.41148
1.27838
1.15858
1.05047
0.952674
0.863975
0.783328
0.709807
0.642601
0.580989
0.524334
0.472066
0.42368
0.378719
0.336774
0.29747
0.260462
0.22544
0.192118
0.160232
0.129535
0.0997902
0.0707758
0.0422794
0.0140648
-5.3053
-5.37972
-5.52999
-5.75474
-6.06504
-6.46763
-6.9627
-7.5514
-8.23316
-8.99923
-9.82634
-10.6667
-11.431
-11.9621
-11.9976
-11.1259
-8.77919
-4.39265
0.405876
-0.829692
-7.61486
-133.415
-417.444
-536.314
-551.671
-669.24
-643.997
-532.07
-454.296
-454.719
-406.445
-494.259
-539.033
-612.246
-682
-569.271
-401.078
-263.734
-115.006
5.43165
52.556
56.1923
45.1609
34.3302
26.1811
20.3006
16.0908
13.0309
10.758
9.0292
7.68316
6.61224
5.74369
5.02739
4.42818
3.92081
3.48677
3.11221
2.78657
2.50166
2.25101
2.02944
1.83277
1.65754
1.5009
1.36044
1.23412
1.12021
1.01723
0.923884
0.839067
0.761801
0.691226
0.626586
0.567209
0.5125
0.461926
0.415015
0.371341
0.330517
0.292189
0.256035
0.221761
0.189098
0.157798
0.127623
0.0983523
0.0697749
0.041691
0.0138717
-5.67025
-5.73769
-5.87156
-6.06865
-6.3371
-6.67929
-7.08922
-7.55941
-8.07748
-8.61845
-9.1368
-9.55381
-9.73583
-9.45761
-8.33941
-5.73824
-0.683438
9.16764
25.4548
45.3803
29.2682
-133.571
-396.819
-478.674
-433.417
-620.729
-741.947
-617.701
-546.911
-535.446
-449.442
-351.856
-375.753
-465.133
-514.248
-449.193
-340.655
-225.485
-116.958
-32.4986
10.7921
25.2922
26.563
23.5058
19.6955
16.2545
13.4346
11.1967
9.4316
8.03138
6.908
5.99462
5.24185
4.61347
4.0828
3.63003
3.24023
2.90201
2.60656
2.34695
2.11765
1.91423
1.73303
1.57107
1.42584
1.29522
1.17742