/*--------------------------------*- C++ -*----------------------------------*\
| =========                 |                                                 |
| \\      /  F ield         | OpenFOAM: The Open Source CFD Toolbox           |
|  \\    /   O peration     | Version:  v1806                                 |
|   \\  /    A nd           | Web:      www.OpenFOAM.com                      |
|    \\/     M anipulation  |                                                 |
\*---------------------------------------------------------------------------*/
FoamFile
{
    version     2.0;
    format      ascii;
    class       surfaceScalarField;
    location    "0.08";
    object      phi;
}
// * * * * * * * * * * * * * * * * * * * * * * * * * * * * * * * * * * * * * //

dimensions      [0 3 -1 0 0 0 0];
oriented        oriented;


internalField   nonuniform List<scalar> 
10650
(
0.00285391
0.00047942
0.00231605
0.00053786
0.00193804
0.000377994
0.00171651
0.000221516
0.00160548
0.000111041
0.00155562
4.986e-05
0.00153747
1.81605e-05
0.00153669
7.70516e-07
0.00154634
-9.6429e-06
0.00156349
-1.71543e-05
0.00158593
-2.24392e-05
0.00161253
-2.65917e-05
0.00164215
-2.96207e-05
0.00167368
-3.15279e-05
0.00170584
-3.21638e-05
0.0017372
-3.13574e-05
0.00176614
-2.89407e-05
0.00179093
-2.47916e-05
0.00180979
-1.88599e-05
0.001821
-1.12128e-05
0.0018231
-2.0928e-06
0.0018146
8.49979e-06
0.00179478
1.98221e-05
0.00176336
3.14138e-05
0.00172064
4.27196e-05
0.00166754
5.30983e-05
0.00160556
6.19764e-05
0.00153671
6.88554e-05
0.00146333
7.33729e-05
0.001388
7.53284e-05
0.00131331
7.4693e-05
0.0012417
7.16054e-05
0.00117535
6.63509e-05
0.00111603
5.93227e-05
0.00106505
5.09822e-05
0.00102323
4.18177e-05
0.00099092
3.23064e-05
0.000968037
2.28799e-05
0.000954102
1.39321e-05
0.000948425
5.67514e-06
0.000950005
-1.58242e-06
0.000957752
-7.74936e-06
0.000970538
-1.27876e-05
0.000987321
-1.67819e-05
0.00100705
-1.97267e-05
0.00102875
-2.17009e-05
0.00105165
-2.28966e-05
0.001075
-2.33537e-05
0.00109827
-2.32731e-05
0.00112098
-2.27133e-05
0.00114281
-2.18294e-05
0.0011635
-2.06905e-05
0.00118288
-1.93861e-05
0.00120087
-1.7985e-05
0.00121742
-1.65462e-05
0.00123253
-1.51084e-05
0.00124623
-1.37028e-05
0.00125858
-1.23525e-05
0.00126966
-1.10746e-05
0.00127954
-9.88014e-06
0.00128831
-8.7745e-06
0.00129607
-7.75907e-06
0.0013029
-6.83281e-06
0.0013089
-5.99319e-06
0.00131413
-5.23585e-06
0.00131869
-4.5551e-06
0.00132264
-3.94744e-06
0.00132604
-3.40855e-06
0.00132898
-2.93146e-06
0.00133149
-2.51088e-06
0.00133363
-2.14078e-06
0.00133544
-1.81447e-06
0.00133698
-1.53102e-06
0.00133827
-1.288e-06
0.00133934
-1.07414e-06
0.00134023
-8.89797e-07
0.00134096
-7.31359e-07
0.00134156
-6.01533e-07
0.00134205
-4.88108e-07
0.00134244
-3.91807e-07
0.00134276
-3.11778e-07
0.00134301
-2.46653e-07
0.0013432
-1.92468e-07
0.00134335
-1.47496e-07
0.00134346
-1.11723e-07
0.00134355
-8.40522e-08
0.00134361
-6.02712e-08
0.00134365
-3.94899e-08
0.00134367
-1.80081e-08
-2.68087e-09
0.00348557
0.00032718
0.00348624
0.000537233
0.00339254
0.00047171
0.00328685
0.000327206
0.00320179
0.000196094
0.00314576
0.000105888
0.00311419
4.97394e-05
0.00310079
1.41678e-05
0.00310105
-9.89598e-06
0.00311124
-2.73441e-05
0.00312952
-4.07197e-05
0.00315406
-5.11327e-05
0.00318346
-5.90107e-05
0.00321621
-6.42782e-05
0.00325074
-6.66986e-05
0.00328533
-6.59509e-05
0.00331807
-6.16783e-05
0.00334689
-5.36163e-05
0.00336968
-4.16392e-05
0.00338432
-2.58528e-05
0.00338891
-6.68653e-06
0.0033818
1.56059e-05
0.00336189
3.97267e-05
0.00332868
6.46271e-05
0.00328236
8.90316e-05
0.00322387
0.000111589
0.00315483
0.000131012
0.0030775
0.00014619
0.00299456
0.000156309
0.00290898
0.000160907
0.00282377
0.000159902
0.0027418
0.000153576
0.00266561
0.000142537
0.0025973
0.000127633
0.00253842
0.000109866
0.00248993
9.03001e-05
0.00245226
6.99714e-05
0.00242531
4.98261e-05
0.00240859
3.06495e-05
0.00240146
1.27945e-05
0.00240234
-2.45569e-06
0.00241025
-1.56629e-05
0.00242394
-2.64795e-05
0.00244212
-3.49629e-05
0.00246361
-4.12127e-05
0.00248736
-4.54581e-05
0.00251242
-4.79615e-05
0.00253804
-4.89705e-05
0.00256354
-4.87799e-05
0.00258844
-4.76195e-05
0.00261236
-4.57501e-05
0.00263503
-4.33517e-05
0.00265626
-4.06147e-05
0.00267596
-3.76798e-05
0.00269407
-3.46576e-05
0.0027106
-3.16396e-05
0.00272559
-2.86939e-05
0.0027391
-2.58653e-05
0.00275122
-2.31909e-05
0.00276203
-2.06921e-05
0.00277164
-1.83794e-05
0.00278013
-1.62552e-05
0.00278762
-1.43176e-05
0.00279419
-1.25607e-05
0.00279994
-1.09776e-05
0.00280494
-9.55892e-06
0.00280928
-8.29083e-06
0.00281303
-7.16211e-06
0.00281627
-6.16323e-06
0.00281904
-5.28175e-06
0.00282141
-4.50691e-06
0.00282342
-3.82883e-06
0.00282513
-3.23704e-06
0.00282656
-2.72046e-06
0.00282776
-2.27155e-06
0.00282876
-1.89171e-06
0.00282959
-1.55773e-06
0.00283027
-1.28207e-06
0.00283083
-1.03853e-06
0.00283128
-8.43958e-07
0.00283165
-6.7613e-07
0.00283194
-5.35887e-07
0.00283217
-4.2013e-07
0.00283235
-3.26611e-07
0.00283249
-2.51402e-07
0.00283259
-1.90177e-07
0.00283268
-1.38348e-07
0.00283273
-9.73924e-08
0.00283278
-6.03516e-08
-2.6631e-08
0.00348413
0.000176361
0.00362248
0.000398891
0.00367954
0.000414661
0.00367839
0.000328356
0.00365174
0.000222748
0.00362292
0.000134709
0.00360247
7.01854e-05
0.00359293
2.37065e-05
0.00359387
-1.08296e-05
0.00360409
-3.75655e-05
0.00362229
-5.8915e-05
0.00364724
-7.60801e-05
0.00367759
-8.93646e-05
0.00371199
-9.86795e-05
0.00374889
-0.000103594
0.00378648
-0.000103547
0.00382275
-9.79499e-05
0.00385545
-8.63196e-05
0.00388222
-6.84024e-05
0.00390063
-4.42626e-05
0.00390865
-1.47102e-05
0.00390405
2.02067e-05
0.00388557
5.82054e-05
0.00385251
9.76868e-05
0.00380496
0.000136578
0.00374386
0.000172688
0.00367099
0.000203877
0.00358884
0.000228338
0.00350043
0.00024472
0.00340909
0.000252255
0.00331818
0.000250806
0.00323092
0.000240839
0.00315011
0.000223346
0.00307803
0.000199709
0.00301633
0.000171559
0.00296601
0.000140615
0.00292743
0.000108541
0.00290042
7.68381e-05
0.00288431
4.6755e-05
0.00287812
1.89841e-05
0.00288047
-4.81088e-06
0.00289004
-2.52322e-05
0.00290543
-4.1871e-05
0.0029253
-5.48341e-05
0.00294836
-6.42725e-05
0.00297352
-7.06203e-05
0.00299981
-7.42523e-05
0.00302644
-7.56065e-05
0.00305278
-7.51136e-05
0.00307833
-7.31723e-05
0.00310273
-7.01513e-05
0.00312574
-6.63616e-05
0.0031472
-6.20727e-05
0.00316702
-5.75011e-05
0.00318519
-5.28219e-05
0.00320172
-4.81674e-05
0.00321666
-4.36369e-05
0.0032301
-3.93033e-05
0.00324212
-3.52141e-05
0.00325283
-3.13981e-05
0.00326233
-2.78729e-05
0.00327071
-2.46398e-05
0.0032781
-2.16934e-05
0.00328456
-1.90279e-05
0.00329021
-1.66268e-05
0.00329513
-1.44724e-05
0.00329939
-1.25519e-05
0.00330307
-1.08455e-05
0.00330624
-9.3317e-06
0.00330896
-7.99686e-06
0.00331127
-6.82576e-06
0.00331324
-5.7988e-06
0.00331491
-4.90088e-06
0.00331631
-4.12144e-06
0.00331748
-3.44407e-06
0.00331846
-2.86699e-06
0.00331927
-2.36607e-06
0.00331993
-1.94429e-06
0.00332048
-1.58245e-06
0.00332092
-1.28279e-06
0.00332127
-1.02902e-06
0.00332156
-8.18296e-07
0.00332178
-6.45043e-07
0.00332196
-5.03111e-07
0.0033221
-3.87297e-07
0.0033222
-2.94828e-07
0.00332229
-2.18807e-07
0.00332235
-1.57391e-07
0.00332239
-1.06005e-07
-5.68689e-08
0.00341955
9.01396e-05
0.00354415
0.000274288
0.00363163
0.000327181
0.0036732
0.000286794
0.0036839
0.000212047
0.00368144
0.000137164
0.00367765
7.39806e-05
0.00367823
2.3127e-05
0.00368543
-1.80329e-05
0.00369988
-5.20131e-05
0.00372143
-8.04581e-05
0.0037495
-0.000104156
0.00378329
-0.000123154
0.00382167
-0.000137055
0.0038632
-0.000145128
0.0039061
-0.000146449
0.00394824
-0.000140093
0.00398716
-0.000125244
0.00402016
-0.0001014
0.00404446
-6.85628e-05
0.00405717
-2.74162e-05
0.0040562
2.11796e-05
0.00403954
7.48599e-05
0.00400622
0.000131007
0.00395621
0.000186582
0.00389057
0.000238333
0.00381133
0.000283121
0.00372142
0.000318245
0.00362443
0.000341711
0.00352429
0.000352395
0.00342497
0.000350123
0.00333018
0.00033562
0.00324314
0.000310383
0.00316637
0.000276474
0.00310163
0.000236297
0.00304988
0.000192362
0.00301134
0.000147071
0.00298562
0.000102559
0.00297181
6.05628e-05
0.00296851
2.22842e-05
0.00297424
-1.05424e-05
0.00298733
-3.83209e-05
0.00300618
-6.07296e-05
0.00302931
-7.7961e-05
0.00305533
-9.02915e-05
0.00308307
-9.836e-05
0.00311154
-0.000102723
0.00313995
-0.000104017
0.00316768
-0.000102846
0.00319428
-9.97768e-05
0.00321944
-9.53081e-05
0.00324294
-8.98668e-05
0.00326469
-8.38157e-05
0.00328463
-7.74437e-05
0.00330279
-7.09755e-05
0.00331921
-6.45874e-05
0.00333398
-5.84069e-05
0.0033472
-5.25204e-05
0.00335897
-4.69864e-05
0.00336941
-4.18391e-05
0.00337864
-3.70944e-05
0.00338676
-3.27555e-05
0.00339388
-2.88123e-05
0.0034001
-2.52473e-05
0.00340552
-2.2043e-05
0.00341022
-1.91753e-05
0.00341428
-1.66176e-05
0.00341778
-1.43454e-05
0.00342079
-1.23359e-05
0.00342335
-1.05653e-05
0.00342554
-9.00892e-06
0.00342739
-7.64645e-06
0.00342894
-6.45977e-06
0.00343025
-5.42873e-06
0.00343134
-4.52989e-06
0.00343224
-3.76585e-06
0.00343298
-3.10651e-06
0.00343359
-2.55218e-06
0.00343408
-2.07128e-06
0.00343448
-1.67849e-06
0.0034348
-1.34554e-06
0.00343505
-1.06993e-06
0.00343524
-8.42335e-07
0.0034354
-6.55264e-07
0.00343552
-5.05454e-07
0.00343561
-3.85551e-07
0.00343568
-2.88887e-07
0.00343573
-2.11099e-07
0.00343577
-1.47314e-07
-8.49699e-08
0.00338084
4.26408e-05
0.00346724
0.000187885
0.00354464
0.000249774
0.00359576
0.000235678
0.00362375
0.000184055
0.0036382
0.000122715
0.00364775
6.44356e-05
0.00365804
1.2836e-05
0.00367228
-3.22739e-05
0.00369215
-7.18813e-05
0.00371838
-0.000106685
0.00375104
-0.000136819
0.00378986
-0.000161968
0.003834
-0.000181196
0.0038822
-0.000193336
0.00393276
-0.000197002
0.00398335
-0.000190691
0.00403122
-0.000173114
0.00407321
-0.000143383
0.00410587
-0.000101227
0.00412578
-4.73226e-05
0.00412998
1.69762e-05
0.00411588
8.89593e-05
0.00408205
0.000164841
0.00402831
0.000240318
0.00395582
0.000310825
0.00386706
0.000371879
0.00376566
0.000419647
0.00365605
0.000451313
0.00354311
0.000465338
0.00343168
0.000461547
0.00332625
0.000441055
0.00323057
0.000406057
0.00314752
0.000359523
0.00307896
0.000304855
0.00302576
0.000245556
0.00298791
0.000184921
0.00296463
0.000125837
0.00295461
7.05835e-05
0.00295608
2.08115e-05
0.00296694
-2.13967e-05
0.00298531
-5.6696e-05
0.0030093
-8.47221e-05
0.00303716
-0.000105825
0.00306744
-0.000120567
0.00309883
-0.000129758
0.00313035
-0.000134242
0.00316121
-0.000134875
0.00319084
-0.000132475
0.00321884
-0.000127779
0.00324497
-0.000121439
0.00326909
-0.000113991
0.00329117
-0.000105888
0.00331122
-9.74883e-05
0.00332931
-8.90624e-05
0.00334553
-8.08168e-05
0.00336002
-7.28929e-05
0.00337289
-6.53941e-05
0.00338428
-5.83785e-05
0.00339434
-5.18853e-05
0.00340316
-4.59243e-05
0.0034109
-4.04853e-05
0.00341764
-3.55581e-05
0.00342351
-3.11178e-05
0.0034286
-2.7131e-05
0.00343299
-2.3568e-05
0.00343677
-2.03992e-05
0.00344002
-1.75898e-05
0.00344279
-1.51058e-05
0.00344514
-1.29182e-05
0.00344713
-1.09999e-05
0.00344881
-9.3234e-06
0.00345021
-7.8629e-06
0.00345138
-6.59422e-06
0.00345235
-5.49573e-06
0.00345314
-4.55882e-06
0.00345379
-3.75447e-06
0.00345431
-3.07275e-06
0.00345473
-2.49186e-06
0.00345506
-2.00928e-06
0.00345532
-1.60537e-06
0.00345553
-1.27117e-06
0.00345568
-9.96222e-07
0.0034558
-7.69865e-07
0.00345589
-5.95145e-07
0.00345596
-4.53078e-07
0.00345601
-3.40297e-07
0.00345605
-2.5101e-07
0.00345608
-1.79605e-07
-1.08879e-07
0.00336092
1.50541e-05
0.00341841
0.000130403
0.00347856
0.000189621
0.00352606
0.000188179
0.00355884
0.000151273
0.00358118
0.000100374
0.00359858
4.70377e-05
0.00361559
-4.16734e-06
0.00363538
-5.20656e-05
0.00366018
-9.66789e-05
0.00369104
-0.000137547
0.00372883
-0.000174612
0.00377359
-0.000206726
0.00382484
-0.000232441
0.0038816
-0.000250094
0.00394212
-0.00025753
0.00400398
-0.000252548
0.00406399
-0.000233129
0.00411835
-0.000197735
0.00416276
-0.00014564
0.00419281
-7.73703e-05
0.00420463
5.15591e-06
0.00419436
9.9229e-05
0.00416011
0.000199089
0.00410136
0.000299063
0.00401945
0.000392735
0.00391748
0.000473844
0.00380009
0.000537033
0.003673
0.00057841
0.00354239
0.000595938
0.00341442
0.000589522
0.0032946
0.000560873
0.00318748
0.000513183
0.00309633
0.000450664
0.00302314
0.000378047
0.00296858
0.00030011
0.00293225
0.000221253
0.00291285
0.00014524
0.00290858
7.48512e-05
0.00291649
1.28937e-05
0.00293464
-3.95404e-05
0.00296024
-8.22997e-05
0.00299113
-0.000115607
0.00302529
-0.000139994
0.00306111
-0.000156386
0.0030972
-0.00016585
0.00313257
-0.000169613
0.00316646
-0.000168767
0.00319839
-0.000164406
0.00322805
-0.000157438
0.00325529
-0.000148679
0.00328008
-0.000138779
0.00330247
-0.000128274
0.00332255
-0.00011757
0.00334047
-0.000106981
0.00335637
-9.6725e-05
0.00337044
-8.6962e-05
0.00338283
-7.77849e-05
0.00339371
-6.92604e-05
0.00340323
-6.14065e-05
0.00341154
-5.42293e-05
0.00341876
-4.77112e-05
0.00342503
-4.18236e-05
0.00343044
-3.65306e-05
0.00343511
-3.17936e-05
0.00343911
-2.75726e-05
0.00344253
-2.3823e-05
0.00344545
-2.0503e-05
0.00344793
-1.75762e-05
0.00345001
-1.5005e-05
0.00345176
-1.27518e-05
0.00345322
-1.0784e-05
0.00345444
-9.07353e-06
0.00345543
-7.59051e-06
0.00345624
-6.3065e-06
0.0034569
-5.21743e-06
0.00345743
-4.28192e-06
0.00345785
-3.48715e-06
0.00345817
-2.81913e-06
0.00345842
-2.26008e-06
0.00345861
-1.79528e-06
0.00345876
-1.41212e-06
0.00345886
-1.09695e-06
0.00345894
-8.47058e-07
0.00345899
-6.48742e-07
0.00345903
-4.92694e-07
0.00345906
-3.69444e-07
0.00345908
-2.7346e-07
0.0034591
-1.99228e-07
-1.26996e-07
0.00334973
-1.34177e-06
0.00338782
9.23122e-05
0.00343227
0.000145171
0.00347173
0.000148722
0.00350273
0.000120266
0.00352683
7.6277e-05
0.00354738
2.64862e-05
0.00356784
-2.46249e-05
0.00359112
-7.53397e-05
0.00361934
-0.000124902
0.00365434
-0.000172546
0.00369709
-0.000217356
0.00374819
-0.000257826
0.00380767
-0.000291922
0.0038747
-0.000317127
0.00394768
-0.00033051
0.00402398
-0.000328852
0.00409996
-0.000309101
0.00417094
-0.000268719
0.00423148
-0.000206174
0.00427563
-0.000121523
0.0042985
-1.7723e-05
0.00429413
0.000103603
0.00425986
0.000233353
0.00419474
0.000364189
0.00410025
0.000487218
0.00398043
0.000593662
0.00384138
0.000676087
0.00369062
0.000729171
0.00353628
0.000750274
0.00338628
0.000739521
0.0032476
0.000699556
0.00312577
0.000635014
0.00302459
0.000551838
0.00294609
0.000456552
0.00289061
0.000355589
0.0028571
0.000254756
0.00284343
0.00015891
0.0028474
7.08825e-05
0.00286455
-4.25865e-06
0.00289208
-6.70686e-05
0.00292717
-0.000117389
0.00296702
-0.000155459
0.00300917
-0.000182149
0.00305187
-0.000199082
0.00309369
-0.00020768
0.00313365
-0.000209569
0.00317108
-0.000206205
0.00320562
-0.00019894
0.00323709
-0.000188913
0.00326549
-0.00017707
0.0032909
-0.00016419
0.00331349
-0.000150867
0.00333347
-0.00013755
0.00335106
-0.00012457
0.00336648
-0.000112149
0.00337996
-0.000100444
0.00339171
-8.95336e-05
0.00340192
-7.94698e-05
0.00341077
-7.02567e-05
0.00341842
-6.18811e-05
0.00342502
-5.43065e-05
0.00343069
-4.74924e-05
0.00343555
-4.13891e-05
0.0034397
-3.59432e-05
0.00344323
-3.11024e-05
0.00344622
-2.68134e-05
0.00344875
-2.30264e-05
0.00345087
-1.96941e-05
0.00345263
-1.67717e-05
0.0034541
-1.42165e-05
0.0034553
-1.19901e-05
0.00345628
-1.00586e-05
0.00345707
-8.37807e-06
0.00345771
-6.94557e-06
0.00345821
-5.71448e-06
0.00345859
-4.66764e-06
0.00345888
-3.77856e-06
0.0034591
-3.03712e-06
0.00345926
-2.41519e-06
0.00345936
-1.90081e-06
0.00345943
-1.47873e-06
0.00345948
-1.14038e-06
0.0034595
-8.71284e-07
0.00345951
-6.60172e-07
0.00345952
-4.97486e-07
0.00345952
-3.72789e-07
0.00345952
-2.78001e-07
0.00345953
-2.0816e-07
-1.38641e-07
0.0033422
-1.02066e-05
0.00336658
6.79272e-05
0.00339785
0.000113909
0.00342809
0.000118483
0.00345403
9.43245e-05
0.00347602
5.42879e-05
0.00349617
6.33044e-06
0.00351715
-4.55986e-05
0.00354156
-9.97475e-05
0.00357171
-0.00015505
0.00360958
-0.000210417
0.00365673
-0.000264509
0.00371428
-0.000315371
0.00378271
-0.00036035
0.00386167
-0.000396088
0.00394971
-0.000418552
0.00404413
-0.000423278
0.00414073
-0.000405693
0.00423379
-0.000361781
0.00431633
-0.000288722
0.00438059
-0.000185776
0.00441815
-5.52906e-05
0.00442324
9.8516e-05
0.00438995
0.000266641
0.00431687
0.000437269
0.00420579
0.000598292
0.00406202
0.000737429
0.00389382
0.000844286
0.00371135
0.000911644
0.00352546
0.000936161
0.00334654
0.000918437
0.00318353
0.000862568
0.00304323
0.000775312
0.00293002
0.000665048
0.00284584
0.000540729
0.00279048
0.000410948
0.00276197
0.000283267
0.00275706
0.000163812
0.00277206
5.58893e-05
0.00280137
-3.35733e-05
0.00284177
-0.000107466
0.00288914
-0.000164757
0.00294011
-0.000206427
0.00299214
-0.000234184
0.00304312
-0.000250061
0.00309169
-0.000256251
0.00313689
-0.000254775
0.00317826
-0.00024757
0.00321557
-0.000236249
0.00324888
-0.000222225
0.00327833
-0.00020652
0.0033042
-0.000190062
0.0033268
-0.000173469
0.00334646
-0.000157204
0.00336349
-0.000141609
0.00337821
-0.000126865
0.0033909
-0.000113128
0.00340181
-0.000100443
0.00341117
-8.88334e-05
0.00341919
-7.82741e-05
0.00342604
-6.87283e-05
0.00343187
-6.01417e-05
0.00343683
-5.24522e-05
0.00344103
-4.55896e-05
0.00344458
-3.94879e-05
0.00344756
-3.4081e-05
0.00345005
-2.93044e-05
0.00345212
-2.50979e-05
0.00345383
-2.14049e-05
0.00345523
-1.81721e-05
0.00345637
-1.53513e-05
0.00345727
-1.28992e-05
0.00345799
-1.07758e-05
0.00345855
-8.93707e-06
0.00345898
-7.37249e-06
0.0034593
-6.03235e-06
0.00345952
-4.88052e-06
0.00345967
-3.93278e-06
0.00345976
-3.128e-06
0.00345981
-2.46088e-06
0.00345982
-1.91217e-06
0.00345981
-1.46927e-06
0.00345979
-1.11537e-06
0.00345975
-8.37652e-07
0.00345972
-6.23226e-07
0.00345968
-4.62155e-07
0.00345966
-3.44732e-07
0.00345964
-2.60674e-07
0.00345963
-2.03059e-07
-1.44334e-07
0.00333615
-1.30239e-05
0.00334987
5.42101e-05
0.00336982
9.39628e-05
0.00339067
9.76284e-05
0.0034098
7.5195e-05
0.00342715
3.69353e-05
0.00344419
-1.07093e-05
0.0034631
-6.45086e-05
0.00348632
-0.000122969
0.00351639
-0.000185121
0.00355558
-0.000249598
0.00360603
-0.000314956
0.00366953
-0.000378877
0.00374731
-0.00043813
0.00383962
-0.000488403
0.0039455
-0.000524433
0.00406226
-0.000540034
0.00418518
-0.000528615
0.00430731
-0.000483906
0.00441957
-0.000400992
0.00451137
-0.000277574
0.00457143
-0.000115345
0.00459014
7.98036e-05
0.00455951
0.000297269
0.00447661
0.000520168
0.00434359
0.000731308
0.00416767
0.000913357
0.00396025
0.00105171
0.00373532
0.00113657
0.00350763
0.00116385
0.00329098
0.00113508
0.00309692
0.00105663
0.00293383
0.000938403
0.00280664
0.000792234
0.00271699
0.000630378
0.00266371
0.00046423
0.00264345
0.000303525
0.00265158
0.000155679
0.00268111
2.63619e-05
0.00272748
-7.99442e-05
0.00278437
-0.000164354
0.00284734
-0.000227723
0.00291216
-0.000271256
0.00297601
-0.000298028
0.00303672
-0.000310777
0.00309293
-0.000312456
0.00314392
-0.000305761
0.00318941
-0.000293063
0.00322951
-0.000276338
0.00326445
-0.000257173
0.00329471
-0.000236779
0.00332074
-0.000216089
0.00334302
-0.000195752
0.00336203
-0.000176216
0.00337821
-0.000157781
0.00339194
-0.0001406
0.00340357
-0.000124761
0.00341342
-0.000110286
0.00342173
-9.71453e-05
0.00342874
-8.52808e-05
0.00343463
-7.46209e-05
0.00343957
-6.50855e-05
0.0034437
-5.65844e-05
0.00344714
-4.90302e-05
0.00345
-4.23391e-05
0.00345234
-3.64291e-05
0.00345427
-3.12247e-05
0.00345582
-2.66546e-05
0.00345707
-2.2653e-05
0.00345806
-1.91591e-05
0.00345882
-1.61182e-05
0.0034594
-1.34783e-05
0.00345983
-1.12002e-05
0.00346013
-9.24192e-06
0.00346033
-7.56889e-06
0.00346044
-6.1421e-06
0.00346049
-4.93502e-06
0.00346048
-3.9242e-06
0.00346044
-3.0807e-06
0.00346036
-2.38532e-06
0.00346027
-1.82259e-06
0.00346017
-1.37014e-06
0.00346007
-1.01313e-06
0.00345997
-7.38873e-07
0.00345988
-5.33767e-07
0.00345981
-3.85348e-07
0.00345975
-2.83282e-07
0.0034597
-2.17559e-07
0.00345968
-1.81027e-07
-1.4307e-07
0.0033309
-1.05929e-05
0.0033353
4.98129e-05
0.00334504
8.42244e-05
0.00335652
8.61475e-05
0.00336775
6.39624e-05
0.00337863
2.60506e-05
0.00339034
-2.24147e-05
0.00340461
-7.87845e-05
0.00342443
-0.000142782
0.00345202
-0.00021271
0.00349035
-0.00028793
0.00354231
-0.000366915
0.00361061
-0.000447175
0.00369745
-0.000524967
0.00380417
-0.000595127
0.00393061
-0.000650874
0.00407448
-0.000683905
0.00423071
-0.000684846
0.00439096
-0.000644156
0.00454352
-0.000553555
0.0046739
-0.000407948
0.00476611
-0.00020756
0.0048062
3.97121e-05
0.00478091
0.000322562
0.00468599
0.00061509
0.00452375
0.000893547
0.00430432
0.00113279
0.00404381
0.00131221
0.00376186
0.00141852
0.00347875
0.00144695
0.00321304
0.00140079
0.00297967
0.00129
0.0027889
0.00112917
0.00264609
0.000935043
0.00255213
0.000724348
0.00250424
0.000512113
0.00249695
0.000310819
0.00252395
0.000128682
0.00257456
-2.42479e-05
0.00264261
-0.000148001
0.00272095
-0.000242687
0.00280321
-0.000309983
0.00288508
-0.000353125
0.00296291
-0.00037586
0.00303473
-0.00038259
0.00309935
-0.00037707
0.00315638
-0.000362796
0.00320595
-0.000342632
0.00324852
-0.000318904
0.00328473
-0.000293385
0.00331532
-0.000267367
0.00334102
-0.000241791
0.00336251
-0.000217248
0.00338045
-0.00019415
0.00339537
-0.000172702
0.00340776
-0.000152997
0.00341805
-0.000135044
0.00342656
-0.0001188
0.0034336
-0.000104182
0.0034394
-9.10842e-05
0.00344417
-7.93927e-05
0.00344808
-6.8993e-05
0.00345126
-5.97685e-05
0.00345384
-5.16096e-05
0.00345591
-4.44116e-05
0.00345755
-3.80757e-05
0.00345884
-3.25132e-05
0.00345983
-2.76438e-05
0.00346057
-2.33935e-05
0.0034611
-1.96935e-05
0.00346147
-1.64834e-05
0.00346168
-1.36874e-05
0.00346179
-1.13087e-05
0.00346181
-9.26209e-06
0.00346176
-7.5158e-06
0.00346165
-6.03431e-06
0.00346151
-4.78851e-06
0.00346133
-3.74556e-06
0.00346113
-2.88502e-06
0.00346093
-2.18614e-06
0.00346073
-1.62068e-06
0.00346053
-1.17335e-06
0.00346035
-8.27859e-07
0.00346018
-5.70153e-07
0.00346003
-3.86521e-07
0.00345991
-2.62687e-07
0.00345981
-1.86867e-07
0.00345974
-1.48794e-07
0.00345971
-1.4216e-07
-1.34844e-07
0.0033258
-3.057e-06
0.00332162
5.3991e-05
0.00332179
8.40525e-05
0.00332386
8.40724e-05
0.00332636
6.14612e-05
0.00332925
2.3168e-05
0.00333346
-2.66333e-05
0.00334116
-8.64817e-05
0.00335462
-0.000156241
0.0033769
-0.000234994
0.0034115
-0.000322526
0.0034623
-0.000417711
0.00353318
-0.000518052
0.00362783
-0.000619616
0.00374917
-0.000716468
0.00389854
-0.000800247
0.00407468
-0.000860047
0.00427264
-0.000882804
0.00448274
-0.000854256
0.00469006
-0.000760881
0.00487483
-0.000592713
0.00501403
-0.000346761
0.00508622
-3.24846e-05
0.00507146
0.000337321
0.00496193
0.000724625
0.00476033
0.00109514
0.00448132
0.0014118
0.00414832
0.0016452
0.00378931
0.00177753
0.00343255
0.00180371
0.0031031
0.00173023
0.00282034
0.00157276
0.0025966
0.00135291
0.00243723
0.00109441
0.00234167
0.000819911
0.00230471
0.000549076
0.0023179
0.000297627
0.0023706
7.59887e-05
0.0024505
-0.000104157
0.00254772
-0.000245217
0.00265329
-0.000348257
0.00275981
-0.000416505
0.00286171
-0.000455021
0.00295575
-0.000469897
0.00303981
-0.000466649
0.00311328
-0.000450538
0.00317625
-0.000425766
0.00322945
-0.000395836
0.00327387
-0.000363323
0.00331062
-0.000330132
0.00334082
-0.000297559
0.00336549
-0.000266464
0.00338557
-0.000237334
0.00340187
-0.000210444
0.00341506
-0.000185893
0.00342571
-0.000163649
0.00343429
-0.000143625
0.00344118
-0.000125696
0.0034467
-0.000109703
0.0034511
-9.54841e-05
0.00345458
-8.28763e-05
0.00345731
-7.17264e-05
0.00345943
-6.18882e-05
0.00346105
-5.32267e-05
0.00346225
-4.56164e-05
0.00346312
-3.89427e-05
0.00346372
-3.31052e-05
0.00346409
-2.80125e-05
0.00346427
-2.35801e-05
0.00346432
-1.97327e-05
0.00346423
-1.63987e-05
0.00346408
-1.35324e-05
0.00346385
-1.10741e-05
0.00346357
-8.98156e-06
0.00346324
-7.19663e-06
0.0034629
-5.69498e-06
0.00346255
-4.43558e-06
0.00346219
-3.37933e-06
0.00346184
-2.53863e-06
0.0034615
-1.84706e-06
0.00346118
-1.29841e-06
0.00346088
-8.73891e-07
0.00346061
-5.55693e-07
0.00346037
-3.28231e-07
0.00346016
-1.7796e-07
0.00345999
-8.9547e-08
0.00345985
-5.20748e-08
0.00345975
-5.33579e-08
0.0034597
-8.68904e-08
-1.19862e-07
0.00332031
9.96273e-06
0.00330821
6.60959e-05
0.00329922
9.30402e-05
0.0032918
9.14903e-05
0.00328485
6.84099e-05
0.00327839
2.96335e-05
0.00327342
-2.16642e-05
0.00327162
-8.46921e-05
0.0032759
-0.000160513
0.00328946
-0.000248555
0.00331648
-0.000349543
0.00336222
-0.000463446
0.00343199
-0.000587826
0.00353159
-0.000719212
0.00366631
-0.000851191
0.00383999
-0.000973923
0.00405351
-0.00107357
0.004303
-0.0011323
0.00457798
-0.00112923
0.00485984
-0.00104275
0.0051218
-0.000854669
0.00533087
-0.000555833
0.00545111
-0.000152734
0.00545599
0.000332441
0.00532884
0.000851781
0.00507318
0.0013508
0.00471131
0.00177366
0.00427812
0.00207839
0.00381417
0.00224148
0.00335916
0.00225873
0.00294706
0.00214233
0.00260282
0.001917
0.00234076
0.00161497
0.00216531
0.00126986
0.00207331
0.00091192
0.0020558
0.000566583
0.00210064
0.000252789
0.00218946
-1.28281e-05
0.00230847
-0.000223176
0.00244429
-0.000381041
0.00258451
-0.000488471
0.00272041
-0.0005524
0.00284622
-0.000580833
0.00295829
-0.000581967
0.00305542
-0.000563774
0.00313759
-0.000532698
0.00320585
-0.000494038
0.00326171
-0.000451695
0.00330689
-0.000408495
0.00334307
-0.000366313
0.00337184
-0.000326325
0.00339456
-0.000289187
0.00341243
-0.00025521
0.00342641
-0.000224425
0.0034373
-0.000196777
0.00344573
-0.000172086
0.00345223
-0.000150123
0.00345719
-0.000130657
0.00346093
-0.000113447
0.00346372
-9.82662e-05
0.00346574
-8.48993e-05
0.00346716
-7.3147e-05
0.0034681
-6.283e-05
0.00346867
-5.37895e-05
0.00346894
-4.58806e-05
0.00346897
-3.89742e-05
0.00346882
-3.29554e-05
0.00346852
-2.77215e-05
0.00346813
-2.31817e-05
0.00346764
-1.92517e-05
0.00346711
-1.58703e-05
0.00346654
-1.29589e-05
0.00346595
-1.04888e-05
0.00346535
-8.37865e-06
0.00346476
-6.60034e-06
0.00346417
-5.10777e-06
0.00346359
-3.85847e-06
0.00346305
-2.84362e-06
0.00346253
-2.01952e-06
0.00346205
-1.36244e-06
0.0034616
-8.51804e-07
0.0034612
-4.68199e-07
0.00346084
-1.93769e-07
0.00346052
-1.17734e-08
0.00346025
9.28034e-08
0.00346003
1.34156e-07
0.00345985
1.21684e-07
0.00345973
7.02015e-08
0.00345965
-1.41824e-08
-9.80043e-08
0.0033149
2.83972e-05
0.00329505
8.59433e-05
0.00327713
0.000110965
0.00326011
0.000108511
0.00324307
8.54456e-05
0.00322599
4.671e-05
0.00320984
-5.51201e-06
0.00319615
-7.10067e-05
0.00318759
-0.000151944
0.00318832
-0.000249283
0.00320308
-0.000364308
0.00323808
-0.000498442
0.00330099
-0.000650735
0.00340026
-0.000818484
0.00354465
-0.000995581
0.00374193
-0.00117121
0.00399693
-0.00132857
0.00430874
-0.00144411
0.00466738
-0.00148787
0.00505069
-0.00142606
0.0054226
-0.00122659
0.00573483
-0.000868066
0.00593319
-0.000351091
0.00597182
0.000293815
0.00582219
0.00100141
0.00549049
0.0016825
0.00501113
0.00225302
0.00443764
0.00265188
0.00382965
0.00284947
0.00324316
0.00284522
0.00272417
0.00266131
0.00230449
0.00233668
0.0019996
0.00191987
0.00181105
0.0014584
0.00173147
0.000991502
0.00174565
0.000552403
0.00183799
0.000160451
0.00197823
-0.000153071
0.00215048
-0.000395425
0.0023358
-0.000566358
0.00251951
-0.000672176
0.00269105
-0.000723943
0.00284398
-0.00073376
0.00297568
-0.000713666
0.00308579
-0.00067388
0.00317574
-0.000622649
0.00324781
-0.000566103
0.00330465
-0.000508533
0.00334889
-0.000452739
0.00338295
-0.000400372
0.00340892
-0.000352287
0.00342853
-0.000308795
0.0034432
-0.000269878
0.00345406
-0.00023529
0.003462
-0.000204718
0.00346771
-0.000177791
0.00347171
-0.000154125
0.00347441
-0.000133361
0.00347613
-0.000115168
0.0034771
-9.92383e-05
0.00347751
-8.53062e-05
0.00347749
-7.31291e-05
0.00347716
-6.24958e-05
0.00347659
-5.32228e-05
0.00347585
-4.51444e-05
0.003475
-3.8117e-05
0.00347406
-3.2016e-05
0.00347307
-2.673e-05
0.00347205
-2.21626e-05
0.00347103
-1.82344e-05
0.00347002
-1.48571e-05
0.00346903
-1.19762e-05
0.00346807
-9.52411e-06
0.00346714
-7.45163e-06
0.00346625
-5.71197e-06
0.00346541
-4.26291e-06
0.00346462
-3.07029e-06
0.00346388
-2.10358e-06
0.00346319
-1.33249e-06
0.00346256
-7.31975e-07
0.00346199
-2.7909e-07
0.00346148
4.57621e-08
0.00346102
2.60683e-07
0.00346063
3.8247e-07
0.00346029
4.26481e-07
0.00346002
4.06357e-07
0.0034598
3.3399e-07
0.00345965
2.21801e-07
0.00345956
7.64912e-08
-6.90809e-08
0.00330963
5.20977e-05
0.00328234
0.000113233
0.00325576
0.000137553
0.00322912
0.000135146
0.00320151
0.000113053
0.00317274
7.5481e-05
0.00314356
2.36692e-05
0.00311538
-4.28275e-05
0.00309004
-0.000126605
0.00307302
-0.000232259
0.00306917
-0.000360457
0.00308598
-0.000515247
0.00313357
-0.000698328
0.00322379
-0.000908708
0.00337018
-0.00114197
0.0035865
-0.00138752
0.00388427
-0.00162634
0.00426881
-0.00182865
0.00473376
-0.00195282
0.00525487
-0.00194717
0.00578496
-0.00175668
0.00625357
-0.00133668
0.00657511
-0.000672624
0.00667351
0.000195413
0.00649553
0.00117938
0.00605292
0.00212511
0.005403
0.00290294
0.00463017
0.00342471
0.00382298
0.00365665
0.00306023
0.00360798
0.00240385
0.0033177
0.00189374
0.00284678
0.00154397
0.00226964
0.00134941
0.00165296
0.0012975
0.00104341
0.00136584
0.000484059
0.00151997
6.32709e-06
0.00173437
-0.000367465
0.00197853
-0.000639584
0.00222856
-0.000816382
0.00246624
-0.000909861
0.00267958
-0.000937276
0.00286273
-0.000916909
0.00301437
-0.000865308
0.00313621
-0.000795715
0.0032317
-0.000718141
0.00330498
-0.000639374
0.00336019
-0.000563743
0.00340111
-0.000493655
0.00343096
-0.000430226
0.00345238
-0.000373701
0.00346745
-0.000323873
0.00347779
-0.000280223
0.00348465
-0.000242151
0.00348896
-0.000209022
0.00349141
-0.000180233
0.0034925
-0.000155223
0.00349264
-0.000133497
0.00349208
-0.000114617
0.00349106
-9.82095e-05
0.00348971
-8.39519e-05
0.00348814
-7.15614e-05
0.00348644
-6.07986e-05
0.00348468
-5.14548e-05
0.00348289
-4.33513e-05
0.00348111
-3.63329e-05
0.00347935
-3.02651e-05
0.00347763
-2.5014e-05
0.00347599
-2.05164e-05
0.00347441
-1.66623e-05
0.00347291
-1.33553e-05
0.00347149
-1.05559e-05
0.00347015
-8.18126e-06
0.00346888
-6.1869e-06
0.0034677
-4.53169e-06
0.00346661
-3.16493e-06
0.00346559