/*--------------------------------*- C++ -*----------------------------------*\
| =========                 |                                                 |
| \\      /  F ield         | OpenFOAM: The Open Source CFD Toolbox           |
|  \\    /   O peration     | Version:  v1806                                 |
|   \\  /    A nd           | Web:      www.OpenFOAM.com                      |
|    \\/     M anipulation  |                                                 |
\*---------------------------------------------------------------------------*/
FoamFile
{
    version     2.0;
    format      ascii;
    class       volVectorField;
    location    "0.08";
    object      U;
}
// * * * * * * * * * * * * * * * * * * * * * * * * * * * * * * * * * * * * * //

dimensions      [0 1 -1 0 0 0 0];


internalField   nonuniform List<vector> 
5400
(
(0.847201 0.0973641 0)
(0.774655 0.107009 0)
(0.640739 0.0696455 0)
(0.541903 0.0370239 0)
(0.493452 0.0166044 0)
(0.472136 0.00630448 0)
(0.463104 0.00154523 0)
(0.460605 -0.000857583 0)
(0.462115 -0.00224845 0)
(0.466255 -0.00310613 0)
(0.47226 -0.00375631 0)
(0.479654 -0.00425938 0)
(0.488112 -0.00463279 0)
(0.497308 -0.00485372 0)
(0.506882 -0.00489406 -9.53112e-36)
(0.516431 -0.00472486 9.53112e-36)
(0.525497 -0.00431973 0)
(0.533579 -0.00365942 0)
(0.540148 -0.00273606 0)
(0.544681 -0.00155766 0)
(0.546698 -0.000153093 0)
(0.545755 0.00141984 0)
(0.541521 0.0031085 0)
(0.533843 0.00483496 0)
(0.522723 0.00650783 0)
(0.508344 0.00803679 0)
(0.491069 0.00933472 0)
(0.471425 0.0103287 0)
(0.450066 0.0109669 0)
(0.427733 0.0112215 0)
(0.405201 0.0110906 0)
(0.383228 0.0105973 0)
(0.362509 0.00978572 0)
(0.343637 0.00871539 0)
(0.327075 0.00745533 0)
(0.313144 0.00607843 0)
(0.302021 0.00465515 0)
(0.293743 0.00324774 0)
(0.288225 0.00190651 0)
(0.28529 0.000679139 0)
(0.284686 -0.000376674 0)
(0.286096 -0.00128078 0)
(0.289188 -0.00202431 0)
(0.293635 -0.00260047 0)
(0.299122 -0.00302277 0)
(0.305346 -0.00330921 0)
(0.312045 -0.00347122 0)
(0.318989 -0.00353237 0)
(0.325988 -0.00350809 0)
(0.33289 -0.00341908 0)
(0.339574 -0.00327905 0)
(0.345955 -0.00310283 0)
(0.351969 -0.00290343 0)
(0.357576 -0.00269072 0)
(0.362757 -0.00247274 0)
(0.367506 -0.00225579 0)
(0.371826 -0.00204429 0)
(0.375734 -0.00184119 0)
(0.379248 -0.00164915 0)
(0.382391 -0.00146993 0)
(0.385188 -0.00130422 0)
(0.387667 -0.00115218 0)
(0.389855 -0.00101357 0)
(0.391778 -0.000887983 0)
(0.393462 -0.000774732 0)
(0.39493 -0.000672965 0)
(0.396205 -0.000582192 0)
(0.397308 -0.000501767 0)
(0.398258 -0.000430627 0)
(0.399074 -0.000367919 0)
(0.399771 -0.000312689 0)
(0.400364 -0.000263873 0)
(0.400866 -0.000221108 0)
(0.401289 -0.000184375 0)
(0.401643 -0.000153148 0)
(0.401937 -0.000126298 0)
(0.40218 -0.000103307 0)
(0.40238 -8.42091e-05 0)
(0.402543 -6.78963e-05 0)
(0.402675 -5.43078e-05 0)
(0.402781 -4.28264e-05 0)
(0.402866 -3.33778e-05 0)
(0.402932 -2.55429e-05 0)
(0.402983 -1.91254e-05 0)
(0.403022 -1.41887e-05 0)
(0.403052 -1.04496e-05 0)
(0.403073 -7.2952e-06 0)
(0.403088 -4.62383e-06 0)
(0.403099 -1.49485e-06 0)
(0.403098 7.2374e-07 0)
(1.00093 0.144249 0)
(1.0496 0.192092 0)
(1.04289 0.150599 0)
(1.00395 0.0958403 0)
(0.970842 0.0523824 0)
(0.950582 0.0255173 0)
(0.938278 0.0105577 0)
(0.931616 0.00196546 0)
(0.92973 -0.00340596 0)
(0.931448 -0.00705762 0)
(0.935825 -0.00978015 0)
(0.942314 -0.0118803 0)
(0.950451 -0.0134463 0)
(0.959811 -0.0144646 0)
(0.96994 -0.014875 0)
(0.980343 -0.0145981 0)
(0.990476 -0.0135562 0)
(0.999745 -0.0116912 0)
(1.00752 -0.00897797 0)
(1.01317 -0.00543828 0)
(1.01609 -0.00115752 0)
(1.01575 0.00373269 0)
(1.01172 0.00902882 0)
(1.00377 0.0144813 0)
(0.991845 0.0198063 0)
(0.976121 0.0247125 0)
(0.956977 0.0289202 0)
(0.934996 0.0321912 0)
(0.910921 0.0343513 0)
(0.885604 0.0353037 0)
(0.859942 0.0350334 0)
(0.834821 0.0336048 0)
(0.811057 0.0311518 0)
(0.789349 0.0278602 0)
(0.770242 0.0239485 0)
(0.754116 0.0196481 0)
(0.741182 0.015185 0)
(0.731487 0.0107643 0)
(0.72494 0.00655904 0)
(0.721371 0.00271009 0)
(0.720448 -0.000684977 0)
(0.721783 -0.00357985 0)
(0.725039 -0.00595377 0)
(0.729838 -0.00780943 0)
(0.735804 -0.00917709 0)
(0.742603 -0.0101076 0)
(0.74994 -0.0106508 0)
(0.757552 -0.0108698 0)
(0.765229 -0.0108208 0)
(0.772797 -0.0105628 0)
(0.780127 -0.0101446 0)
(0.78712 -0.00961171 0)
(0.793708 -0.00900349 0)
(0.799849 -0.00835122 0)
(0.805521 -0.0076808 0)
(0.810717 -0.00701133 0)
(0.815445 -0.00635758 0)
(0.81972 -0.00573018 0)
(0.823565 -0.00513673 0)
(0.827004 -0.00458225 0)
(0.830066 -0.00406893 0)
(0.832779 -0.00359765 0)
(0.835176 -0.00316787 0)
(0.837283 -0.00277818 0)
(0.839129 -0.00242688 0)
(0.840741 -0.00211172 0)
(0.842142 -0.00183018 0)
(0.843355 -0.00157994 0)
(0.844402 -0.00135849 0)
(0.845302 -0.00116319 0)
(0.846072 -0.000991406 0)
(0.846729 -0.000840625 0)
(0.847286 -0.000708946 0)
(0.847756 -0.000594896 0)
(0.848151 -0.000496593 0)
(0.848481 -0.000412031 0)
(0.848755 -0.000339819 0)
(0.848981 -0.000278024 0)
(0.849166 -0.000225897 0)
(0.849318 -0.000181718 0)
(0.84944 -0.000144873 0)
(0.849539 -0.000114388 0)
(0.849617 -8.93248e-05 0)
(0.849679 -6.88786e-05 0)
(0.849726 -5.2381e-05 0)
(0.849763 -3.92282e-05 0)
(0.849791 -2.82387e-05 0)
(0.849813 -1.93505e-05 0)
(0.849826 -1.08194e-05 0)
(0.849838 -3.41575e-06 0)
(1.00605 0.0720183 0)
(1.06527 0.140424 0)
(1.10583 0.136069 0)
(1.10856 0.102211 0)
(1.09921 0.0659476 0)
(1.09086 0.0381695 0)
(1.08379 0.0192384 0)
(1.079 0.00639446 0)
(1.07759 -0.00269343 0)
(1.07934 -0.00950075 0)
(1.08367 -0.014795 0)
(1.09019 -0.018976 0)
(1.09853 -0.0221718 0)
(1.10828 -0.0243676 0)
(1.11901 -0.0254692 0)
(1.13021 -0.0253442 0)
(1.14133 -0.0238552 0)
(1.15171 -0.0208925 0)
(1.16067 -0.0164018 0)
(1.16749 -0.0104077 0)
(1.1715 -0.00303121 0)
(1.17205 0.00546247 0)
(1.16862 0.0147498 0)
(1.16091 0.0243834 0)
(1.14883 0.0338507 0)
(1.13254 0.0426174 0)
(1.11243 0.050177 0)
(1.08915 0.0560946 0)
(1.06353 0.0600475 0)
(1.03652 0.0618534 0)
(1.00914 0.0614798 0)
(0.982361 0.0590391 0)
(0.957101 0.0547696 0)
(0.934127 0.0490047 0)
(0.914028 0.042137 0)
(0.897201 0.0345815 0)
(0.883854 0.0267428 0)
(0.874012 0.0189887 0)
(0.867548 0.0116317 0)
(0.864215 0.00491721 0)
(0.863654 -0.00103224 0)
(0.86546 -0.00608213 0)
(0.869223 -0.0102029 0)
(0.874532 -0.0134175 0)
(0.880988 -0.0157809 0)
(0.888237 -0.017375 0)
(0.895968 -0.0183004 0)
(0.903919 -0.0186612 0)
(0.911875 -0.0185631 0)
(0.919666 -0.0181036 0)
(0.927165 -0.0173729 0)
(0.934282 -0.016449 0)
(0.940955 -0.0153979 0)
(0.94715 -0.0142738 0)
(0.952849 -0.0131206 0)
(0.958053 -0.011971 0)
(0.962774 -0.0108502 0)
(0.967031 -0.00977674 0)
(0.970849 -0.00876284 0)
(0.974259 -0.00781605 0)
(0.977289 -0.00694041 0)
(0.97997 -0.00613684 0)
(0.982334 -0.00540425 0)
(0.984409 -0.00474078 0)
(0.986226 -0.00414295 0)
(0.98781 -0.00360679 0)
(0.989186 -0.00312832 0)
(0.990376 -0.00270285 0)
(0.991403 -0.00232577 0)
(0.992285 -0.0019932 0)
(0.993039 -0.00170118 0)
(0.993682 -0.00144536 0)
(0.994226 -0.00122194 0)
(0.994686 -0.00102794 0)
(0.995072 -0.000860173 0)
(0.995394 -0.000715418 0)
(0.995662 -0.000591233 0)
(0.995883 -0.000485119 0)
(0.996064 -0.000395332 0)
(0.996211 -0.000319582 0)
(0.99633 -0.000256152 0)
(0.996426 -0.000203532 0)
(0.996502 -0.000160366 0)
(0.996562 -0.000125129 0)
(0.99661 -9.63729e-05 0)
(0.996646 -7.29479e-05 0)
(0.996674 -5.37187e-05 0)
(0.996697 -3.8196e-05 0)
(0.996708 -2.4935e-05 0)
(0.996726 -1.24012e-05 0)
(1.00034 0.0376528 0)
(1.04115 0.0977266 0)
(1.08444 0.110073 0)
(1.10004 0.0929034 0)
(1.1036 0.0665902 0)
(1.10501 0.0421564 0)
(1.10432 0.0227052 0)
(1.1034 0.00778823 0)
(1.10432 -0.00380856 0)
(1.10756 -0.0130829 0)
(1.11298 -0.020659 0)
(1.12044 -0.0268422 0)
(1.12974 -0.0317242 0)
(1.14059 -0.0352261 0)
(1.1526 -0.0371789 1.43348e-33)
(1.16529 -0.0373676 -1.43348e-33)
(1.17808 -0.0355658 0)
(1.19028 -0.0315827 0)
(1.20111 -0.0253093 0)
(1.20975 -0.0167546 0)
(1.21535 -0.00607674 0)
(1.21716 0.00635398 0)
(1.21455 0.0200609 0)
(1.20709 0.0343708 0)
(1.19461 0.0485012 0)
(1.17727 0.0616326 0)
(1.15552 0.0729827 0)
(1.13012 0.0818795 0)
(1.10204 0.0878249 0)
(1.07242 0.0905383 0)
(1.04245 0.0899735 0)
(1.01327 0.0863094 0)
(0.985938 0.0799173 0)
(0.961319 0.0713116 0)
(0.940055 0.061093 0)
(0.922554 0.0498923 0)
(0.908997 0.0383187 0)
(0.899358 0.0269193 0)
(0.893436 0.0161494 0)
(0.890884 0.00636259 0)
(0.891267 -0.0022102 0)
(0.894111 -0.00944598 0)
(0.898926 -0.0153068 0)
(0.905245 -0.0198304 0)
(0.912636 -0.0231155 0)
(0.920717 -0.0252862 0)
(0.929164 -0.0264958 0)
(0.937709 -0.0269019 0)
(0.946141 -0.0266611 0)
(0.954299 -0.0259169 0)
(0.962068 -0.0247998 0)
(0.969372 -0.023421 0)
(0.976162 -0.0218744 0)
(0.982417 -0.0202365 0)
(0.988133 -0.0185671 0)
(0.99332 -0.0169131 0)
(0.997998 -0.0153081 0)
(1.00219 -0.013776 0)
(1.00594 -0.0123336 0)
(1.00927 -0.01099 0)
(1.01222 -0.00974991 0)
(1.01482 -0.00861426 0)
(1.01711 -0.00758072 0)
(1.01911 -0.00664602 0)
(1.02085 -0.00580498 0)
(1.02237 -0.00505144 0)
(1.02368 -0.00437945 0)
(1.02482 -0.00378231 0)
(1.02579 -0.00325357 0)
(1.02663 -0.00278748 0)
(1.02734 -0.00237808 0)
(1.02794 -0.00201947 0)
(1.02845 -0.00170661 0)
(1.02888 -0.00143498 0)
(1.02924 -0.00120026 0)
(1.02954 -0.000997651 0)
(1.02979 -0.00082391 0)
(1.02999 -0.000676089 0)
(1.03015 -0.000550959 0)
(1.03029 -0.000445346 0)
(1.03039 -0.000357115 0)
(1.03048 -0.000284037 0)
(1.03054 -0.000223827 0)
(1.0306 -0.000174514 0)
(1.03064 -0.000134716 0)
(1.03067 -0.000102466 0)
(1.03069 -7.64487e-05 0)
(1.03071 -5.54794e-05 0)
(1.03072 -3.81639e-05 0)
(1.03074 -2.14216e-05 0)
(0.997409 0.0189555 0)
(1.02331 0.0674428 0)
(1.05823 0.0852724 0)
(1.0742 0.0781508 0)
(1.0826 0.0598706 0)
(1.08958 0.0396773 0)
(1.09356 0.0214346 0)
(1.09609 0.00594617 0)
(1.09947 -0.00712053 0)
(1.10453 -0.0182649 0)
(1.11143 -0.0278196 0)
(1.12026 -0.0359455 0)
(1.13098 -0.0425902 0)
(1.14343 -0.0475709 0)
(1.1573 -0.0506042 0)
(1.17214 -0.0513417 0)
(1.18734 -0.0494253 0)
(1.20215 -0.0445432 0)
(1.21567 -0.0364903 0)
(1.22692 -0.0252294 0)
(1.23486 -0.0109481 0)
(1.23854 0.00593293 0)
(1.2371 0.0247315 0)
(1.22996 0.0444818 0)
(1.21685 0.0640805 0)
(1.19792 0.0823512 0)
(1.17372 0.0981598 0)
(1.14516 0.110533 0)
(1.11346 0.118756 0)
(1.08001 0.122432 0)
(1.04628 0.121513 0)
(1.01368 0.116273 0)
(0.983442 0.107264 0)
(0.956576 0.095235 0)
(0.933791 0.0810518 0)
(0.915499 0.0656113 0)
(0.90183 0.0497677 0)
(0.892662 0.0342763 0)
(0.887681 0.0197556 0)
(0.886419 0.00669239 0)
(0.888293 -0.00466116 0)
(0.892705 -0.0141328 0)
(0.899088 -0.0217047 0)
(0.906892 -0.0274548 0)
(0.915635 -0.0315359 0)
(0.924906 -0.0341373 0)
(0.93436 -0.0354779 0)
(0.943729 -0.0357791 0)
(0.952812 -0.035255 0)
(0.961464 -0.0341003 0)
(0.969588 -0.0324868 0)
(0.97713 -0.0305611 0)
(0.984062 -0.0284439 0)
(0.990381 -0.0262325 0)
(0.996102 -0.0240021 0)
(1.00125 -0.0218095 0)
(1.00585 -0.0196964 0)
(1.00996 -0.0176899 0)
(1.01359 -0.0158089 0)
(1.01681 -0.0140639 0)
(1.01964 -0.0124583 0)
(1.02212 -0.0109919 0)
(1.02429 -0.00966134 0)
(1.02618 -0.00846044 0)
(1.02783 -0.00738153 0)
(1.02925 -0.00641665 0)
(1.03047 -0.00555733 0)
(1.03153 -0.00479472 0)
(1.03243 -0.0041204 0)
(1.03319 -0.00352636 0)
(1.03385 -0.00300484 0)
(1.0344 -0.00254876 0)
(1.03486 -0.00215146 0)
(1.03524 -0.00180649 0)
(1.03556 -0.00150823 0)
(1.03583 -0.00125198 0)
(1.03604 -0.00103277 0)
(1.03622 -0.000845804 0)
(1.03636 -0.000687844 0)
(1.03647 -0.000554614 0)
(1.03656 -0.000443815 0)
(1.03663 -0.000352188 0)
(1.03668 -0.000276745 0)
(1.03672 -0.000215579 0)
(1.03675 -0.000165924 0)
(1.03678 -0.000126334 0)
(1.0368 -9.48084e-05 0)
(1.03681 -6.96752e-05 0)
(1.03682 -4.93318e-05 0)
(1.03683 -2.9315e-05 0)
(0.996062 0.00821258 0)
(1.01326 0.0466224 0)
(1.04024 0.0648643 0)
(1.05297 0.0630619 0)
(1.06196 0.050272 0)
(1.07118 0.0337142 0)
(1.07766 0.0170685 0)
(1.08242 0.001643 0)
(1.08766 -0.0123516 0)
(1.09427 -0.0250094 0)
(1.10259 -0.036419 0)
(1.11285 -0.0465193 0)
(1.12522 -0.0551127 0)
(1.13962 -0.0618683 0)
(1.15583 -0.0663298 0)
(1.17343 -0.0679702 0)
(1.19182 -0.0662473 0)
(1.21014 -0.0606681 0)
(1.22735 -0.0508694 0)
(1.24222 -0.0367115 0)
(1.25346 -0.018362 0)
(1.25981 0.00363821 0)
(1.26011 0.0284521 0)
(1.25349 0.0547427 0)
(1.23958 0.0809789 0)
(1.21849 0.105511 0)
(1.1909 0.12674 0)
(1.15795 0.143297 0)
(1.12121 0.154187 0)
(1.08247 0.158879 0)
(1.04359 0.157336 0)
(1.00633 0.149981 0)
(0.9722 0.137615 0)
(0.94239 0.121311 0)
(0.91769 0.10228 0)
(0.898498 0.0817566 0)
(0.884856 0.0608968 0)
(0.876503 0.0407004 0)
(0.872973 0.0219588 0)
(0.873553 0.00532956 0)
(0.877495 -0.00892949 0)
(0.884092 -0.0206716 0)
(0.892603 -0.0298972 0)
(0.902392 -0.0367348 0)
(0.912914 -0.0414206 0)
(0.923722 -0.0442402 0)
(0.934458 -0.0454929 0)
(0.94486 -0.0454794 0)
(0.954743 -0.044479 0)
(0.963987 -0.0427435 0)
(0.972526 -0.040488 0)
(0.980332 -0.0378951 0)
(0.987409 -0.0351109 0)
(0.993779 -0.032251 0)
(0.999478 -0.0294031 0)
(1.00455 -0.0266309 0)
(1.00904 -0.0239803 0)
(1.01301 -0.0214813 0)
(1.0165 -0.0191518 0)
(1.01956 -0.0170006 0)
(1.02223 -0.0150301 0)
(1.02456 -0.0132367 0)
(1.02658 -0.0116144 0)
(1.02833 -0.0101542 0)
(1.02984 -0.00884531 0)
(1.03114 -0.00767733 0)
(1.03225 -0.00663915 0)
(1.03321 -0.00571932 0)
(1.03401 -0.00490729 0)
(1.0347 -0.00419311 0)
(1.03527 -0.00356701 0)
(1.03575 -0.00302009 0)
(1.03615 -0.00254424 0)
(1.03648 -0.00213156 0)
(1.03675 -0.00177597 0)
(1.03697 -0.0014699 0)
(1.03715 -0.00120857 0)
(1.03729 -0.000986666 0)
(1.0374 -0.000799075 0)
(1.03749 -0.000642063 0)
(1.03756 -0.000511517 0)
(1.03761 -0.000403783 0)
(1.03764 -0.000315764 0)
(1.03767 -0.000244438 0)
(1.03769 -0.0001874 0)
(1.0377 -0.000142499 0)
(1.03771 -0.000106977 0)
(1.03772 -7.91141e-05 0)
(1.03772 -5.74318e-05 0)
(1.03774 -3.56359e-05 0)
(0.995282 0.0018328 0)
(1.00735 0.0327241 0)
(1.02844 0.0494521 0)
(1.03738 0.0500204 0)
(1.04506 0.0405259 0)
(1.05445 0.0265169 0)
(1.06177 0.0111658 0)
(1.06759 -0.0041398 0)
(1.07389 -0.0189294 0)
(1.08154 -0.0330427 0)
(1.09098 -0.0463596 0)
(1.1026 -0.0586336 0)
(1.11665 -0.0695124 0)
(1.13322 -0.0784833 0)
(1.1522 -0.0848878 4.02468e-33)
(1.17321 -0.087969 -4.02468e-33)
(1.19563 -0.0869278 0)
(1.21851 -0.0810034 0)
(1.24061 -0.0695877 0)
(1.26041 -0.0523551 0)
(1.2762 -0.0293873 0)
(1.28635 -0.00126379 0)
(1.28921 0.0307489 0)
(1.2835 0.0650882 0)
(1.26864 0.0996001 0)
(1.24472 0.131974 0)
(1.21255 0.159976 0)
(1.17367 0.181697 0)
(1.13011 0.195773 0)
(1.08423 0.201513 0)
(1.03846 0.198924 0)
(0.995033 0.188656 0)
(0.955846 0.171878 0)
(0.92231 0.1501 0)
(0.8953 0.125 0)
(0.875172 0.0982504 0)
(0.861821 0.0713852 0)
(0.854763 0.0457043 0)
(0.85334 0.0222166 0)
(0.856552 0.00163572 0)
(0.863306 -0.0157172 0)
(0.872746 -0.0297185 0)
(0.884027 -0.0404433 0)
(0.896367 -0.0481468 0)
(0.909124 -0.0531658 0)
(0.921825 -0.0559064 0)
(0.934109 -0.0567749 0)
(0.945731 -0.0561679 0)
(0.956535 -0.0544411 0)
(0.966441 -0.051909 0)
(0.975422 -0.0488315 0)
(0.983493 -0.0454245 0)
(0.990692 -0.0418583 0)
(0.997076 -0.0382616 0)
(1.00271 -0.0347307 0)
(1.00766 -0.0313334 0)
(1.01199 -0.0281151 0)
(1.01577 -0.0251048 0)
(1.01906 -0.0223173 0)
(1.02192 -0.0197583 0)
(1.02439 -0.0174257 0)
(1.02653 -0.0153118 0)
(1.02837 -0.0134062 0)
(1.02995 -0.0116964 0)
(1.0313 -0.0101685 0)
(1.03245 -0.00880862 0)
(1.03342 -0.00760236 0)
(1.03425 -0.0065358 0)
(1.03495 -0.00559644 0)
(1.03553 -0.00477195 0)
(1.03601 -0.00405026 0)
(1.03641 -0.00342083 0)
(1.03674 -0.00287441 0)
(1.03701 -0.00240213 0)
(1.03722 -0.00199497 0)
(1.03739 -0.00164487 0)
(1.03752 -0.00134569 0)
(1.03762 -0.00109371 0)
(1.0377 -0.000880814 0)
(1.03775 -0.000703189 0)
(1.03779 -0.000556092 0)
(1.03782 -0.000435528 0)
(1.03784 -0.0003376 0)
(1.03785 -0.000258871 0)
(1.03785 -0.000197204 0)
(1.03786 -0.000149229 0)
(1.03786 -0.000111904 0)
(1.03786 -8.31934e-05 0)
(1.03786 -6.17339e-05 0)
(1.03787 -4.00973e-05 0)
(0.994682 -0.00190332 0)
(1.00334 0.0236041 0)
(1.02002 0.0383135 0)
(1.0254 0.0396416 0)
(1.03097 0.0319314 0)
(1.03937 0.0194856 0)
(1.04639 0.00492703 0)
(1.05228 -0.0104765 0)
(1.05885 -0.0261797 0)
(1.06697 -0.0419014 0)
(1.07713 -0.0573504 0)
(1.08983 -0.0721765 0)
(1.1055 -0.0858567 0)
(1.12437 -0.0976878 0)
(1.14647 -0.106786 0)
(1.17152 -0.112102 0)
(1.19891 -0.112492 0)
(1.2276 -0.106816 0)
(1.25612 -0.0940962 0)
(1.28255 -0.0736931 0)
(1.30468 -0.0455083 0)
(1.32008 -0.0101419 0)
(1.32659 0.0308409 0)
(1.32247 0.0753262 0)
(1.3066 0.120394 0)
(1.279 0.162821 0)
(1.24076 0.199473 0)
(1.19389 0.227698 0)
(1.14117 0.245636 0)
(1.08576 0.252406 0)
(1.03088 0.248119 0)
(0.979424 0.233785 0)
(0.933785 0.211098 0)
(0.895653 0.182192 0)
(0.865977 0.149369 0)
(0.845017 0.114873 0)
(0.832442 0.0807183 0)
(0.827464 0.0485662 0)
(0.829032 0.0197122 0)
(0.835745 -0.00527942 0)
(0.846266 -0.0258734 0)
(0.85949 -0.0420423 0)
(0.874297 -0.0540163 0)
(0.889791 -0.0622307 0)
(0.905276 -0.0671889 0)
(0.920233 -0.0694411 0)
(0.934317 -0.069536 0)
(0.947314 -0.067978 0)
(0.959121 -0.0652139 0)
(0.969716 -0.0616196 0)
(0.97913 -0.0575077 0)
(0.987425 -0.0531188 0)
(0.994692 -0.0486398 0)
(1.00103 -0.0442096 0)
(1.00653 -0.0399267 0)
(1.01129 -0.0358576 0)
(1.01539 -0.0320431 0)
(1.01893 -0.0285064 0)
(1.02197 -0.0252559 0)
(1.02457 -0.0222908 0)
(1.0268 -0.0196026 0)
(1.0287 -0.0171783 0)
(1.03032 -0.0150023 0)
(1.03169 -0.0130568 0)
(1.03285 -0.011324 0)
(1.03383 -0.00978614 0)
(1.03465 -0.00842569 0)
(1.03533 -0.00722603 0)
(1.0359 -0.00617165 0)
(1.03636 -0.00524783 0)
(1.03674 -0.00444095 0)
(1.03705 -0.00373886 0)
(1.03729 -0.00313088 0)
(1.03748 -0.00260654 0)
(1.03763 -0.00215395 0)
(1.03774 -0.00176731 0)
(1.03782 -0.00143899 0)
(1.03788 -0.00116061 0)
(1.03792 -0.000927264 0)
(1.03794 -0.000733558 0)
(1.03795 -0.000574257 0)
(1.03795 -0.000444336 0)
(1.03794 -0.000339828 0)
(1.03793 -0.000257472 0)
(1.03792 -0.000193435 0)
(1.03791 -0.000144705 0)
(1.0379 -0.000108247 0)
(1.0379 -8.13027e-05 0)
(1.03789 -6.20869e-05 0)
(1.03789 -4.26982e-05 0)
(0.994123 -0.00373935 0)
(1.00016 0.0180222 0)
(1.01332 0.0307716 0)
(1.01543 0.0320471 0)
(1.01858 0.025163 0)
(1.0253 0.0135241 0)
(1.03119 -0.000738114 0)
(1.03634 -0.0165498 0)
(1.04244 -0.033428 0)
(1.05038 -0.0510059 0)
(1.06073 -0.0689689 0)
(1.07412 -0.0868687 0)
(1.09116 -0.104057 0)
(1.11231 -0.119646 0)
(1.1378 -0.132488 0)
(1.16752 -0.141181 0)
(1.20093 -0.144128 0)
(1.23692 -0.139664 0)
(1.27375 -0.126255 0)
(1.30902 -0.102756 0)
(1.33978 -0.0687253 0)
(1.36272 -0.0247314 0)
(1.37471 0.0275141 0)
(1.37308 0.085074 0)
(1.35616 0.14389 0)
(1.32382 0.199467 0)
(1.27746 0.247381 0)
(1.21986 0.283927 0)
(1.15484 0.306583 0)
(1.08674 0.314255 0)
(1.01987 0.307267 0)
(0.95804 0.287185 0)
(0.90428 0.256487 0)
(0.860605 0.218178 0)
(0.828003 0.175413 0)
(0.806541 0.131184 0)
(0.795531 0.0880966 0)
(0.793773 0.0482217 0)
(0.79951 0.013165 0)
(0.810982 -0.0165081 0)
(0.826558 -0.0403451 0)
(0.844617 -0.0584677 0)
(0.863853 -0.0713368 0)
(0.883208 -0.0795647 0)
(0.901927 -0.0839124 0)
(0.919491 -0.0851355 0)
(0.935585 -0.083953 0)
(0.950066 -0.0810004 0)
(0.962906 -0.0768221 0)
(0.974159 -0.07186 0)
(0.983936 -0.0664671 0)
(0.992373 -0.060908 0)
(0.999613 -0.0553774 0)
(1.0058 -0.0500146 0)
(1.01107 -0.044912 0)
(1.01555 -0.0401285 0)
(1.01936 -0.0356948 0)
(1.02257 -0.0316228 0)
(1.02529 -0.0279105 0)
(1.02759 -0.024547 0)
(1.02952 -0.021516 0)
(1.03114 -0.0187972 0)
(1.0325 -0.0163679 0)
(1.03364 -0.0142046 0)
(1.03458 -0.0122847 0)
(1.03536 -0.0105864 0)
(1.036 -0.0090885 0)
(1.03652 -0.00777125 0)
(1.03694 -0.00661637 0)
(1.03727 -0.00560676 0)
(1.03754 -0.00472704 0)
(1.03774 -0.00396295 0)
(1.03789 -0.00330346 0)
(1.038 -0.00273479 0)
(1.03807 -0.00224667 0)
(1.03812 -0.00183094 0)
(1.03814 -0.00147937 0)
(1.03815 -0.00118167 0)
(1.03814 -0.000933942 0)
(1.03812 -0.000729784 0)
(1.0381 -0.000562765 0)
(1.03807 -0.000427728 0)
(1.03804 -0.00032069 0)
(1.03801 -0.000237647 0)
(1.03798 -0.000174519 0)
(1.03795 -0.000127928 0)
(1.03793 -9.48563e-05 0)
(1.03792 -7.22556e-05 0)
(1.0379 -5.80134e-05 0)
(1.03791 -4.33825e-05 0)
(0.993591 -0.00386773 0)
(0.997369 0.0153771 0)
(1.00746 0.0264063 0)
(1.00652 0.0272507 0)
(1.00705 0.0206158 0)
(1.01164 0.00925664 0)
(1.01578 -0.0051175 0)
(1.01945 -0.0216679 0)
(1.02437 -0.0399591 0)
(1.03143 -0.0597241 0)
(1.04127 -0.0806594 0)
(1.05475 -0.10229 0)
(1.07273 -0.123881 0)
(1.09595 -0.144382 0)
(1.12494 -0.162371 1.57034e-33)
(1.15989 -0.17603 -1.57034e-33)
(1.20044 -0.183186 0)
(1.24549 -0.18145 0)
(1.29304 -0.168464 0)
(1.34009 -0.142271 0)
(1.38272 -0.101786 0)
(1.41633 -0.0472997 0)
(1.43642 0.0191419 0)
(1.43887 0.0936983 0)
(1.42101 0.170723 0)
(1.38251 0.243813 0)
(1.32524 0.306635 0)
(1.25311 0.353966 0)
(1.17152 0.382396 0)
(1.08647 0.390622 0)
(1.00383 0.379375 0)
(0.928667 0.351095 0)
(0.864798 0.309421 0)
(0.814594 0.258599 0)
(0.778995 0.202936 0)
(0.757711 0.146403 0)
(0.749487 0.0923502 0)
(0.752538 0.0433662 0)
(0.764307 0.00111867 0)
(0.782239 -0.0335316 0)
(0.804309 -0.0605052 0)
(0.828501 -0.0801539 0)
(0.853203 -0.0932464 0)
(0.877217 -0.100766 0)
(0.899707 -0.103755 0)
(0.920194 -0.103242 0)
(0.938453 -0.100146 0)
(0.954446 -0.0952591 0)
(0.968263 -0.0892231 0)
(0.980072 -0.0825443 0)
(0.990083 -0.0756016 0)
(0.998516 -0.0686733 0)
(1.00559 -0.0619522 0)
(1.01149 -0.0555633 0)
(1.01641 -0.0495842 0)
(1.0205 -0.0440543 0)
(1.0239 -0.0389882 0)
(1.02671 -0.034381 0)
(1.02904 -0.0302168 0)
(1.03097 -0.026472 0)
(1.03255 -0.0231187 0)
(1.03385 -0.0201273 0)
(1.03491 -0.0174674 0)
(1.03577 -0.0151093 0)
(1.03647 -0.0130247 0)
(1.03703 -0.0111869 0)
(1.03746 -0.00957088 0)
(1.03781 -0.0081541 0)
(1.03806 -0.00691553 0)
(1.03825 -0.00583583 0)
(1.03839 -0.00489781 0)
(1.03847 -0.00408697 0)
(1.03852 -0.00338574 0)
(1.03854 -0.00278292 0)
(1.03854 -0.00226843 0)
(1.03851 -0.00183186 0)
(1.03847 -0.00146249 0)
(1.03843 -0.00115369 0)
(1.03837 -0.00089861 0)
(1.03831 -0.000688792 0)
(1.03825 -0.000518683 0)
(1.03819 -0.000383257 0)
(1.03813 -0.000277594 0)
(1.03808 -0.000197559 0)
(1.03803 -0.000139045 0)
(1.03799 -9.80371e-05 0)
(1.03796 -7.12008e-05 0)
(1.03794 -5.54857e-05 0)
(1.03791 -4.88772e-05 0)
(1.03791 -4.19584e-05 0)
(0.993031 -0.00224763 0)
(0.994689 0.0153874 0)
(1.00197 0.0249767 0)
(0.998098 0.025258 0)
(0.995894 0.0185662 0)
(0.997975 0.00717094 0)
(0.999802 -0.00757822 0)
(1.00137 -0.0250568 0)
(1.00436 -0.0449998 0)
(1.00968 -0.0672849 0)
(1.01816 -0.0916781 0)
(1.0309 -0.117775 0)
(1.04908 -0.144823 0)
(1.07383 -0.171669 0)
(1.10617 -0.196629 1.84397e-33)
(1.14672 -0.217422 -1.84397e-33)
(1.19553 -0.231164 0)
(1.25166 -0.234488 0)
(1.31295 -0.223839 0)
(1.37572 -0.195978 0)
(1.43477 -0.148688 0)
(1.48368 -0.0815887 0)
(1.51574 0.00316124 0)
(1.52469 0.100081 0)
(1.50631 0.201654 0)
(1.45977 0.298493 0)
(1.38764 0.381349 0)
(1.29565 0.442797 0)
(1.19153 0.478246 0)
(1.08376 0.486262 0)
(0.98038 0.468324 0)
(0.888123 0.428256 0)
(0.811814 0.371431 0)
(0.754143 0.303851 0)
(0.715824 0.231374 0)
(0.695966 0.159228 0)
(0.692503 0.0916895 0)
(0.702546 0.0320514 0)
(0.722616 -0.0182322 0)
(0.749362 -0.0581943 0)
(0.779939 -0.0879489 0)
(0.811878 -0.108372 0)
(0.843242 -0.12073 0)
(0.8727 -0.126486 0)
(0.899452 -0.127106 0)
(0.9231 -0.123937 0)
(0.943568 -0.118145 0)
(0.960989 -0.110679 0)
(0.97562 -0.10228 0)
(0.987781 -0.0934998 0)
(0.997806 -0.0847307 0)
(1.00602 -0.0762401 0)
(1.01272 -0.0682002 0)
(1.01817 -0.0607076 0)
(1.02258 -0.0538103 0)
(1.02615 -0.0475196 0)
(1.02903 -0.0418243 0)
(1.03134 -0.0366979 0)
(1.0332 -0.0321053 0)
(1.03469 -0.0280064 0)
(1.03586 -0.02436 0)
(1.03679 -0.021126 0)
(1.03752 -0.018265 0)
(1.03808 -0.0157405 0)
(1.0385 -0.0135178 0)
(1.03881 -0.0115652 0)
(1.03903 -0.00985401 0)
(1.03917 -0.00835872 0)
(1.03926 -0.00705552 0)
(1.03929 -0.00592286 0)
(1.03928 -0.00494247 0)
(1.03925 -0.00409653 0)
(1.03919 -0.00336819 0)
(1.03911 -0.00274386 0)
(1.03902 -0.00221322 0)
(1.03892 -0.00176438 0)
(1.03882 -0.00138754 0)
(1.03871 -0.00107559 0)
(1.0386 -0.000817477 0)
(1.0385 -0.000607566 0)
(1.0384 -0.000439953 0)
(1.03831 -0.000308882 0)
(1.03822 -0.000209243 0)
(1.03815 -0.000136309 0)
(1.03808 -8.57699e-05 0)
(1.03802 -5.3706e-05 0)
(1.03797 -3.65307e-05 0)
(1.03794 -3.08626e-05 0)
(1.03791 -3.47557e-05 0)
(1.03791 -3.84579e-05 0)
(0.992387 0.000970631 0)
(0.991964 0.0178589 0)
(0.996613 0.0263386 0)
(0.989888 0.02609 0)
(0.98483 0.0192435 0)
(0.984092 0.00769458 0)
(0.983141 -0.00752223 0)
(0.981918 -0.0260011 0)
(0.982113 -0.0477358 0)
(0.984749 -0.072787 0)
(0.990787 -0.101077 0)
(1.00162 -0.132349 0)
(1.01885 -0.166007 0)
(1.04416 -0.200889 0)
(1.0792 -0.235116 -5.42945e-34)
(1.12537 -0.265932 5.42945e-34)
(1.18339 -0.289615 0)
(1.25283 -0.301522 0)
(1.33157 -0.296392 0)
(1.41527 -0.268994 0)
(1.49715 -0.215172 0)
(1.56823 -0.133187 0)
(1.61815 -0.025073 0)
(1.63743 0.102179 0)
(1.61949 0.237667 0)
(1.56227 0.367297 0)
(1.4696 0.477445 0)
(1.35007 0.557478 0)
(1.21505 0.601296 0)
(1.07662 0.60757 0)
(0.945897 0.579128 0)
(0.831835 0.521986 0)
(0.740441 0.444121 0)
(0.674574 0.354022 0)
(0.634398 0.259576 0)
(0.618044 0.167602 0)
(0.622321 0.0833997 0)
(0.642622 0.011168 0)
(0.674065 -0.0478032 0)
(0.712525 -0.0928415 0)
(0.754135 -0.1246 0)
(0.795723 -0.144589 0)
(0.835091 -0.154799 0)
(0.870842 -0.157351 0)
(0.902256 -0.154261 0)
(0.929155 -0.147279 0)
(0.95171 -0.13784 0)
(0.97031 -0.127054 0)
(0.985442 -0.115738 0)
(0.997621 -0.10446 0)
(1.00734 -0.0935935 0)
(1.01505 -0.0833683 0)
(1.02112 -0.0739071 0)
(1.02588 -0.0652612 0)
(1.0296 -0.0574321 0)
(1.03249 -0.0503914 0)
(1.03472 -0.0440933 0)
(1.03643 -0.0384822 0)
(1.03773 -0.0334997 0)
(1.03871 -0.0290874 0)
(1.03943 -0.025189 0)
(1.03994 -0.0217515 0)
(1.0403 -0.0187262 0)
(1.04052 -0.0160691 0)
(1.04065 -0.0137395 0)
(1.04069 -0.0117011 0)
(1.04067 -0.00992135 0)
(1.0406 -0.00837129 0)
(1.0405 -0.00702476 0)
(1.04037 -0.00585895 0)
(1.04021 -0.00485237 0)
(1.04005 -0.0039859 0)
(1.03987 -0.00324371 0)
(1.0397 -0.00261113 0)
(1.03952 -0.00207554 0)
(1.03934 -0.00162508 0)
(1.03916 -0.0012501 0)
(1.039 -0.000940359 0)
(1.03884 -0.000686702 0)
(1.03869 -0.000483941 0)
(1.03855 -0.000324674 0)
(1.03842 -0.000203137 0)
(1.03831 -0.000114155 0)
(1.0382 -5.25745e-05 0)
(1.03811 -1.38942e-05 0)
(1.03804 5.60767e-06 0)
(1.03798 9.72762e-06 0)
(1.03794 1.9776e-06 0)
(1.0379 -1.55608e-05 0)
(1.03789 -3.29291e-05 0)
(0.991732 0.00571279 0)
(0.989269 0.0226733 0)
(0.991369 0.0304053 0)
(0.98182 0.0297806 0)
(0.973798 0.0228525 0)
(0.969956 0.0112191 0)
(0.965738 -0.00436916 0)
(0.96106 -0.0237755 0)
(0.957551 -0.0471846 0)
(0.956337 -0.0750417 0)
(0.958608 -0.107496 0)
(0.965981 -0.144584 0)
(0.980549 -0.18603 0)
(1.00474 -0.230838 0)
(1.04114 -0.2771 0)
(1.09225 -0.321679 0)
(1.15996 -0.359944 0)
(1.24492 -0.38566 0)
(1.34551 -0.391201 0)
(1.45698 -0.368296 0)
(1.57064 -0.3095 0)
(1.67386 -0.210385 0)
(1.75122 -0.0721005 0)
(1.78756 0.0967134 0)
(1.77155 0.279937 0)
(1.69966 0.455802 0)
(1.57793 0.603655 0)
(1.41962 0.708188 0)
(1.24175 0.761571 0)
(1.06172 0.763181 0)
(0.894918 0.718224 0)
(0.753219 0.636187 0)
(0.643927 0.528997 0)
(0.569653 0.408628 0)
(0.52944 0.285492 0)
(0.519813 0.168504 0)
(0.536075 0.0645718 0)
(0.571347 -0.0227912 0)
(0.618611 -0.0911922 0)
(0.672569 -0.140692 0)
(0.728195 -0.17296 0)
(0.781682 -0.190557 0)
(0.830481 -0.196519 0)
(0.873239 -0.193885 0)
(0.909525 -0.185341 0)
(0.93952 -0.173114 0)
(0.963792 -0.158916 0)
(0.98309 -0.143991 0)
(0.998214 -0.129182 0)
(1.00992 -0.115025 0)
(1.0189 -0.101829 0)
(1.02571 -0.0897419 0)
(1.03083 -0.0788064 0)
(1.03464 -0.0690029 0)
(1.03745 -0.0602694 0)
(1.03949 -0.0525235 0)
(1.04094 -0.045676 0)
(1.04194 -0.0396381 0)
(1.0426 -0.0343239 0)
(1.043 -0.0296542 0)
(1.0432 -0.0255563 0)
(1.04326 -0.021964 0)
(1.0432 -0.0188191 0)
(1.04307 -0.01607 0)
(1.04287 -0.01367 0)
(1.04263 -0.0115783 0)
(1.04236 -0.00975902 0)
(1.04207 -0.00818002 0)
(1.04177 -0.00681451 0)
(1.04146 -0.00563623 0)
(1.04116 -0.00462164 0)
(1.04086 -0.0037524 0)
(1.04057 -0.00300992 0)
(1.04028 -0.00238132 0)
(1.04001 -0.00185238 0)
(1.03975 -0.00141079 0)
(1.0395 -0.00104524 0)
(1.03927 -0.00074548 0)
(1.03906 -0.000505698 0)
(1.03886 -0.000316646 0)
(1.03868 -0.000171748 0)
(1.03852 -6.51354e-05 0)
(1.03837 8.53312e-06 0)
(1.03825 5.43387e-05 0)
(1.03814 7.68288e-05 0)
(1.03805 7.99984e-05 0)
(1.03797 6.76188e-05 0)
(1.03792 4.32509e-05 0)
(1.03788 8.91803e-06 0)
(1.03786 -2.5301e-05 0)
(0.991083 0.0120453 0)
(0.98665 0.0297638 0)
(0.986299 0.0371088 0)
(0.973975 0.036353 0)
(0.96292 0.0295635 0)
(0.95574 0.018097 0)
(0.947815 0.00243628 0)
(0.939015 -0.0175744 0)
(0.930826 -0.0423604 0)
(0.924435 -0.0726917 0)
(0.921249 -0.109237 0)
(0.923093 -0.152518 0)
(0.932609 -0.20277 0)
(0.953107 -0.259435 0)
(0.988392 -0.32089 -1.20751e-32)
(1.04257 -0.383889 1.20751e-32)
(1.11945 -0.442988 0)
(1.22162 -0.490119 0)
(1.34899 -0.514507 0)
(1.49704 -0.503347 0)
(1.65516 -0.443704 0)
(1.80579 -0.325932 0)
(1.92548 -0.14825 0)
(1.98974 0.0786447 0)
(1.97883 0.330412 0)
(1.88621 0.572727 0)
(1.7222 0.773243 0)
(1.50822 0.909865 0)
(1.27028 0.973237 0)
(1.03351 0.964784 0)
(0.819125 0.893821 0)
(0.642779 0.775247 0)
(0.512999 0.627139 0)
(0.431151 0.466266 0)
(0.394328 0.305612 0)
(0.397151 0.156898 0)
(0.431026 0.0288157 0)
(0.486857 -0.0752864 0)
(0.556168 -0.15308 0)
(0.630763 -0.205598 0)
(0.704274 -0.235872 0)
(0.772165 -0.248101 0)
(0.831763 -0.246865 0)
(0.88202 -0.236366 0)
(0.923026 -0.220156 0)
(0.955578 -0.20097 0)
(0.980833 -0.180768 0)
(1.00004 -0.16085 0)
(1.01441 -0.142004 0)
(1.02497 -0.124653 0)
(1.03263 -0.10897 0)
(1.03807 -0.0949722 0)
(1.04186 -0.0825837 0)
(1.04442 -0.0716809 0)
(1.04608 -0.0621206 0)
(1.04708 -0.0537566 0)
(1.04761 -0.0464492 0)
(1.04779 -0.04007 0)
(1.04772 -0.0345037 0)
(1.04748 -0.0296491 0)
(1.04712 -0.0254167 0)
(1.04668 -0.0217282 0)
(1.04619 -0.018516 0)
(1.04567 -0.0157211 0)
(1.04514 -0.0132917 0)
(1.0446 -0.0111832 0)
(1.04407 -0.00935672 0)
(1.04355 -0.00778062 0)
(1.04304 -0.0064199 0)
(1.04256 -0.00524785 0)
(1.0421 -0.00424525 0)
(1.04166 -0.00338881 0)
(1.04125 -0.00266318 0)
(1.04085 -0.00205278 0)
(1.04049 -0.00154215 0)