/*--------------------------------*- C++ -*----------------------------------*\
| =========                 |                                                 |
| \\      /  F ield         | OpenFOAM: The Open Source CFD Toolbox           |
|  \\    /   O peration     | Version:  v1806                                 |
|   \\  /    A nd           | Web:      www.OpenFOAM.com                      |
|    \\/     M anipulation  |                                                 |
\*---------------------------------------------------------------------------*/
FoamFile
{
    version     2.0;
    format      ascii;
    class       vectorField;
    location    "0.05";
    object      currentcloudofpoints;
}
// * * * * * * * * * * * * * * * * * * * * * * * * * * * * * * * * * * * * * //


648
(
(0.233121 0.464169 0.05)
(0.718796 0.537255 0.05)
(0.346182 0.607404 0.05)
(0.618105 0.407474 0.05)
(0.243723 0.448043 0.05)
(0.25413 0.43401 0.05)
(0.264997 0.422527 0.05)
(0.276116 0.413269 0.05)
(0.287802 0.405475 0.05)
(0.299609 0.398967 0.05)
(0.311012 0.392085 0.05)
(0.321807 0.38433 0.05)
(0.332642 0.375124 0.05)
(0.343053 0.363944 0.05)
(0.352853 0.351439 0.05)
(0.363092 0.337813 0.05)
(0.373491 0.323037 0.05)
(0.384783 0.308358 0.05)
(0.396872 0.294088 0.05)
(0.410772 0.279179 0.05)
(0.425753 0.266268 0.05)
(0.441809 0.255234 0.05)
(0.461303 0.24535 0.05)
(0.482695 0.237138 0.05)
(0.507531 0.230158 0.05)
(0.538181 0.224954 0.05)
(0.574317 0.223991 0.05)
(0.612032 0.230265 0.05)
(0.647385 0.243318 0.05)
(0.679829 0.261974 0.05)
(0.707941 0.284766 0.05)
(0.730392 0.311543 0.05)
(0.746659 0.342551 0.05)
(0.756539 0.377141 0.05)
(0.759255 0.413073 0.05)
(0.755378 0.446384 0.05)
(0.747878 0.475044 0.05)
(0.738771 0.499102 0.05)
(0.729004 0.519622 0.05)
(0.708238 0.552253 0.05)
(0.697619 0.565631 0.05)
(0.68676 0.577954 0.05)
(0.675136 0.589403 0.05)
(0.662858 0.600301 0.05)
(0.650321 0.6108 0.05)
(0.638055 0.621225 0.05)
(0.62734 0.631878 0.05)
(0.618936 0.642979 0.05)
(0.613341 0.654374 0.05)
(0.610125 0.66659 0.05)
(0.608765 0.679971 0.05)
(0.607005 0.695036 0.05)
(0.603895 0.711581 0.05)
(0.597409 0.728926 0.05)
(0.58767 0.746092 0.05)
(0.573623 0.761798 0.05)
(0.557296 0.774888 0.05)
(0.536478 0.785754 0.05)
(0.51166 0.795517 0.05)
(0.480339 0.804137 0.05)
(0.439735 0.808579 0.05)
(0.394691 0.80403 0.05)
(0.353863 0.791859 0.05)
(0.319822 0.776364 0.05)
(0.291136 0.758601 0.05)
(0.266348 0.73896 0.05)
(0.244668 0.71698 0.05)
(0.22583 0.687085 0.05)
(0.212457 0.650199 0.05)
(0.204901 0.607877 0.05)
(0.203445 0.567883 0.05)
(0.207171 0.534377 0.05)
(0.214065 0.506967 0.05)
(0.222963 0.48359 0.05)
(0.353255 0.594214 0.05)
(0.361589 0.579233 0.05)
(0.37078 0.562905 0.05)
(0.380198 0.545214 0.05)
(0.389238 0.525967 0.05)
(0.397899 0.504893 0.05)
(0.406492 0.482431 0.05)
(0.416726 0.459392 0.05)
(0.429712 0.437662 0.05)
(0.446155 0.419372 0.05)
(0.465252 0.405809 0.05)
(0.483829 0.39704 0.05)
(0.501823 0.391394 0.05)
(0.518943 0.387313 0.05)
(0.533978 0.383493 0.05)
(0.547226 0.37908 0.05)
(0.558768 0.373744 0.05)
(0.568441 0.367283 0.05)
(0.576233 0.360016 0.05)
(0.582421 0.352177 0.05)
(0.587117 0.343465 0.05)
(0.591241 0.334416 0.05)
(0.595929 0.325413 0.05)
(0.602696 0.317934 0.05)
(0.612896 0.313492 0.05)
(0.627696 0.314318 0.05)
(0.64522 0.321566 0.05)
(0.661298 0.333652 0.05)
(0.672052 0.348316 0.05)
(0.675899 0.36239 0.05)
(0.673173 0.373305 0.05)
(0.665034 0.380533 0.05)
(0.653452 0.38548 0.05)
(0.641059 0.390706 0.05)
(0.629038 0.397636 0.05)
(0.608346 0.419874 0.05)
(0.599194 0.434097 0.05)
(0.590957 0.450663 0.05)
(0.58342 0.470199 0.05)
(0.576659 0.491392 0.05)
(0.569387 0.515102 0.05)
(0.558575 0.540595 0.05)
(0.541687 0.564767 0.05)
(0.519113 0.585357 0.05)
(0.49507 0.602414 0.05)
(0.472426 0.617899 0.05)
(0.451858 0.633727 0.05)
(0.434278 0.648531 0.05)
(0.418549 0.662112 0.05)
(0.407296 0.674349 0.05)
(0.398586 0.685573 0.05)
(0.394037 0.696481 0.05)
(0.392878 0.70651 0.05)
(0.392242 0.714578 0.05)
(0.390266 0.719828 0.05)
(0.38541 0.721346 0.05)
(0.377895 0.71935 0.05)
(0.368082 0.714848 0.05)
(0.357546 0.709212 0.05)
(0.346912 0.703541 0.05)
(0.336093 0.696024 0.05)
(0.327625 0.68714 0.05)
(0.3225 0.67792 0.05)
(0.320417 0.668872 0.05)
(0.321195 0.660721 0.05)
(0.323647 0.653139 0.05)
(0.326921 0.645613 0.05)
(0.330717 0.637668 0.05)
(0.335165 0.628893 0.05)
(0.340206 0.61889 0.05)
(0.693937 0.486961 0.05)
(0.292236 0.576808 0.05)
(0.33351 0.565322 0.05)
(0.640115 0.484047 0.05)
(0.374588 0.496145 0.05)
(0.50449 0.349779 0.05)
(0.495727 0.636421 0.05)
(0.429935 0.399669 0.05)
(0.458714 0.700084 0.05)
(0.596601 0.547274 0.05)
(0.531538 0.317024 0.05)
(0.253891 0.597314 0.05)
(0.535532 0.716281 0.05)
(0.735429 0.389189 0.05)
(0.467624 0.775451 0.05)
(0.300863 0.719847 0.05)
(0.534591 0.26957 0.05)
(0.653981 0.274143 0.05)
(0.354782 0.567154 0.05)
(0.33838 0.592243 0.05)
(0.670404 0.432083 0.05)
(0.694302 0.436438 0.05)
(0.31998 0.615058 0.05)
(0.307228 0.624684 0.05)
(0.395163 0.482623 0.05)
(0.37829 0.523818 0.05)
(0.614112 0.447668 0.05)
(0.635427 0.428402 0.05)
(0.716569 0.40492 0.05)
(0.713679 0.359343 0.05)
(0.57155 0.545948 0.05)
(0.592194 0.49504 0.05)
(0.461598 0.393788 0.05)
(0.42581 0.425682 0.05)
(0.465544 0.637072 0.05)
(0.514555 0.603403 0.05)
(0.568525 0.334815 0.05)
(0.560509 0.351202 0.05)
(0.536172 0.365064 0.05)
(0.509139 0.373248 0.05)
(0.46703 0.744736 0.05)
(0.445905 0.734299 0.05)
(0.415904 0.704999 0.05)
(0.423945 0.677418 0.05)
(0.293194 0.636539 0.05)
(0.286634 0.652419 0.05)
(0.40228 0.756762 0.05)
(0.447052 0.760875 0.05)
(0.302165 0.692916 0.05)
(0.340642 0.725437 0.05)
(0.572474 0.283565 0.05)
(0.567684 0.304936 0.05)
(0.66892 0.302032 0.05)
(0.614002 0.275657 0.05)
(0.721484 0.451276 0.05)
(0.663438 0.481592 0.05)
(0.314776 0.584724 0.05)
(0.35559 0.53941 0.05)
(0.617408 0.495899 0.05)
(0.273118 0.58258 0.05)
(0.398464 0.447223 0.05)
(0.531983 0.337581 0.05)
(0.554316 0.593415 0.05)
(0.493963 0.707514 0.05)
(0.47427 0.369167 0.05)
(0.449734 0.673817 0.05)
(0.711741 0.325834 0.05)
(0.533882 0.296729 0.05)
(0.518712 0.745853 0.05)
(0.380279 0.764287 0.05)
(0.258722 0.652296 0.05)
(0.581044 0.254974 0.05)
(0.736611 0.345751 0.05)
(0.745597 0.427395 0.05)
(0.728569 0.480586 0.05)
(0.698928 0.521597 0.05)
(0.254218 0.509948 0.05)
(0.29354 0.500062 0.05)
(0.632788 0.573888 0.05)
(0.6025 0.602271 0.05)
(0.49381 0.262147 0.05)
(0.557535 0.239215 0.05)
(0.347593 0.481572 0.05)
(0.364631 0.447638 0.05)
(0.575144 0.719743 0.05)
(0.551046 0.753355 0.05)
(0.335351 0.764583 0.05)
(0.256435 0.699873 0.05)
(0.228319 0.63084 0.05)
(0.231031 0.549154 0.05)
(0.454519 0.311784 0.05)
(0.469233 0.284458 0.05)
(0.512647 0.776388 0.05)
(0.417025 0.792197 0.05)
(0.574611 0.625464 0.05)
(0.546269 0.650205 0.05)
(0.42273 0.35505 0.05)
(0.443031 0.329967 0.05)
(0.552141 0.66587 0.05)
(0.575387 0.692411 0.05)
(0.381191 0.416657 0.05)
(0.405747 0.378939 0.05)
(0.624942 0.247639 0.05)
(0.701381 0.294484 0.05)
(0.315144 0.50693 0.05)
(0.334267 0.499252 0.05)
(0.675634 0.538849 0.05)
(0.651238 0.5564 0.05)
(0.349568 0.588276 0.05)
(0.342126 0.600757 0.05)
(0.358057 0.573946 0.05)
(0.346517 0.580695 0.05)
(0.367328 0.558032 0.05)
(0.34331 0.570412 0.05)
(0.335294 0.580984 0.05)
(0.644688 0.406959 0.05)
(0.659609 0.406028 0.05)
(0.682413 0.434989 0.05)
(0.673892 0.407024 0.05)
(0.682626 0.465452 0.05)
(0.694272 0.464319 0.05)
(0.686099 0.405814 0.05)
(0.333453 0.61471 0.05)
(0.327663 0.623664 0.05)
(0.314069 0.621004 0.05)
(0.322416 0.63122 0.05)
(0.305188 0.60358 0.05)
(0.2976 0.604957 0.05)
(0.317554 0.63783 0.05)
(0.388094 0.515461 0.05)
(0.379348 0.535026 0.05)
(0.396524 0.494172 0.05)
(0.386912 0.504181 0.05)
(0.405741 0.471368 0.05)
(0.384803 0.491696 0.05)
(0.376786 0.511079 0.05)
(0.616306 0.425075 0.05)
(0.627363 0.414338 0.05)
(0.606673 0.438448 0.05)
(0.623528 0.435205 0.05)
(0.598035 0.454301 0.05)
(0.629483 0.456125 0.05)
(0.639667 0.451331 0.05)
(0.700972 0.364123 0.05)
(0.692636 0.343669 0.05)
(0.702678 0.382604 0.05)
(0.717754 0.382749 0.05)
(0.697924 0.396303 0.05)
(0.728148 0.400737 0.05)
(0.726685 0.375161 0.05)
(0.580566 0.503277 0.05)
(0.587949 0.479814 0.05)
(0.571334 0.528695 0.05)
(0.58313 0.51973 0.05)
(0.557259 0.554725 0.05)
(0.584525 0.542228 0.05)
(0.595113 0.518115 0.05)
(0.436202 0.421888 0.05)
(0.42093 0.441888 0.05)
(0.454986 0.405651 0.05)
(0.443492 0.407717 0.05)
(0.473796 0.394528 0.05)
(0.44692 0.395505 0.05)
(0.430403 0.411028 0.05)
(0.503993 0.602958 0.05)
(0.529323 0.584443 0.05)
(0.479454 0.619406 0.05)
(0.488533 0.620262 0.05)
(0.45784 0.635452 0.05)
(0.476722 0.637855 0.05)
(0.500623 0.62154 0.05)
(0.56574 0.359957 0.05)
(0.557037 0.366342 0.05)
(0.572417 0.352613 0.05)
(0.565807 0.344244 0.05)
(0.57706 0.344074 0.05)
(0.554716 0.325064 0.05)
(0.553428 0.333577 0.05)
(0.51563 0.380343 0.05)
(0.498602 0.385033 0.05)
(0.529968 0.376562 0.05)
(0.523497 0.369385 0.05)
(0.542693 0.372654 0.05)
(0.525109 0.356733 0.05)
(0.512204 0.361344 0.05)
(0.413437 0.726784 0.05)
(0.406639 0.713861 0.05)
(0.420489 0.736612 0.05)
(0.457781 0.739758 0.05)
(0.423302 0.743007 0.05)
(0.505136 0.72932 0.05)
(0.497309 0.723707 0.05)
(0.419785 0.670198 0.05)
(0.434101 0.655724 0.05)
(0.409994 0.683256 0.05)
(0.416261 0.690668 0.05)
(0.404521 0.695988 0.05)
(0.433691 0.708004 0.05)
(0.429144 0.696044 0.05)
(0.305324 0.659769 0.05)
(0.305388 0.669572 0.05)
(0.308032 0.652314 0.05)
(0.290008 0.644097 0.05)
(0.31195 0.645892 0.05)
(0.272111 0.61584 0.05)
(0.268418 0.625608 0.05)
(0.406597 0.746393 0.05)
(0.417844 0.747131 0.05)
(0.390931 0.741213 0.05)
(0.425334 0.761392 0.05)
(0.373757 0.732409 0.05)
(0.436792 0.77143 0.05)
(0.464387 0.767748 0.05)
(0.335931 0.709601 0.05)
(0.351935 0.719567 0.05)
(0.321839 0.697884 0.05)
(0.32015 0.709973 0.05)
(0.311556 0.685126 0.05)
(0.298295 0.704404 0.05)
(0.32272 0.725163 0.05)
(0.582864 0.319947 0.05)
(0.580891 0.331178 0.05)
(0.584674 0.308045 0.05)
(0.568886 0.294359 0.05)
(0.589401 0.297995 0.05)
(0.553558 0.274708 0.05)
(0.549675 0.284524 0.05)
(0.622941 0.292697 0.05)
(0.604056 0.291163 0.05)
(0.646772 0.302122 0.05)
(0.640774 0.285636 0.05)
(0.670539 0.318102 0.05)
(0.662084 0.2869 0.05)
(0.633015 0.271741 0.05)
(0.706794 0.424952 0.05)
(0.708404 0.450853 0.05)
(0.720761 0.429792 0.05)
(0.707977 0.472101 0.05)
(0.731765 0.422963 0.05)
(0.651694 0.424615 0.05)
(0.653287 0.44843 0.05)
(0.667674 0.456037 0.05)
(0.651138 0.478003 0.05)
(0.677544 0.48662 0.05)
(0.32949 0.605509 0.05)
(0.326224 0.593635 0.05)
(0.316483 0.601838 0.05)
(0.324406 0.577511 0.05)
(0.303995 0.584916 0.05)
(0.367147 0.546919 0.05)
(0.366742 0.534294 0.05)
(0.355243 0.554422 0.05)
(0.36585 0.519329 0.05)
(0.344595 0.555041 0.05)
(0.601936 0.467713 0.05)
(0.605215 0.488685 0.05)
(0.616283 0.467017 0.05)
(0.60747 0.518646 0.05)
(0.628127 0.483919 0.05)
(0.300862 0.631201 0.05)
(0.289724 0.609445 0.05)
(0.281072 0.612046 0.05)
(0.282925 0.579981 0.05)
(0.263218 0.587399 0.05)
(0.408693 0.453537 0.05)
(0.411633 0.436833 0.05)
(0.397175 0.46457 0.05)
(0.413308 0.421986 0.05)
(0.385938 0.473258 0.05)
(0.550383 0.359866 0.05)
(0.549551 0.34452 0.05)
(0.539975 0.352026 0.05)
(0.536072 0.32854 0.05)
(0.521183 0.344284 0.05)
(0.547192 0.576973 0.05)
(0.534159 0.597857 0.05)
(0.56398 0.57078 0.05)
(0.524816 0.615431 0.05)
(0.579127 0.569628 0.05)
(0.424484 0.721508 0.05)
(0.46985 0.724683 0.05)
(0.445956 0.71976 0.05)
(0.51976 0.707562 0.05)
(0.471763 0.70684 0.05)
(0.487187 0.381697 0.05)
(0.494293 0.369884 0.05)
(0.471973 0.380461 0.05)
(0.492089 0.358892 0.05)
(0.452572 0.382344 0.05)
(0.441265 0.657065 0.05)
(0.434167 0.677049 0.05)
(0.451541 0.657309 0.05)
(0.445075 0.690303 0.05)
(0.467805 0.655106 0.05)
(0.696703 0.329445 0.05)
(0.714966 0.342838 0.05)
(0.693677 0.313509 0.05)
(0.727674 0.356026 0.05)
(0.686634 0.298081 0.05)
(0.570736 0.32236 0.05)
(0.552544 0.29985 0.05)
(0.555204 0.313746 0.05)
(0.531804 0.283623 0.05)
(0.534442 0.308032 0.05)
(0.461165 0.753529 0.05)
(0.487437 0.755876 0.05)
(0.500321 0.742252 0.05)
(0.498032 0.761857 0.05)
(0.529803 0.730358 0.05)
(0.369931 0.741504 0.05)
(0.358147 0.745597 0.05)
(0.395595 0.7624 0.05)
(0.339679 0.745333 0.05)
(0.424046 0.77679 0.05)
(0.291471 0.671607 0.05)
(0.270089 0.647475 0.05)
(0.27932 0.675628 0.05)
(0.253923 0.622689 0.05)
(0.273836 0.687272 0.05)
(0.587568 0.275835 0.05)
(0.597409 0.263635 0.05)
(0.570686 0.266505 0.05)
(0.615802 0.259171 0.05)
(0.553666 0.260204 0.05)
(0.733668 0.327424 0.05)
(0.747674 0.362737 0.05)
(0.74623 0.385861 0.05)
(0.753149 0.401813 0.05)
(0.737906 0.366858 0.05)
(0.74145 0.410279 0.05)
(0.749818 0.439539 0.05)
(0.719995 0.514434 0.05)
(0.707877 0.531618 0.05)
(0.731942 0.492485 0.05)
(0.713013 0.504387 0.05)
(0.743034 0.465316 0.05)
(0.711661 0.489757 0.05)
(0.693771 0.50668 0.05)
(0.249287 0.480203 0.05)
(0.264955 0.466433 0.05)
(0.234448 0.499817 0.05)
(0.276889 0.502375 0.05)
(0.222101 0.526683 0.05)
(0.280592 0.536309 0.05)
(0.295798 0.54329 0.05)
(0.654576 0.584741 0.05)
(0.641755 0.595476 0.05)
(0.617633 0.58635 0.05)
(0.628289 0.606802 0.05)
(0.613089 0.558008 0.05)
(0.596153 0.579618 0.05)
(0.615027 0.618498 0.05)
(0.482578 0.251315 0.05)
(0.509999 0.240783 0.05)
(0.519957 0.249292 0.05)
(0.544266 0.233001 0.05)
(0.512789 0.267519 0.05)
(0.53758 0.252463 0.05)
(0.584597 0.232148 0.05)
(0.318266 0.441503 0.05)
(0.32756 0.436197 0.05)
(0.357155 0.468207 0.05)
(0.335926 0.427851 0.05)
(0.361737 0.497808 0.05)
(0.372636 0.472939 0.05)
(0.344007 0.41715 0.05)
(0.584083 0.731686 0.05)
(0.572547 0.748145 0.05)
(0.566336 0.735642 0.05)
(0.556882 0.762426 0.05)
(0.559087 0.712374 0.05)
(0.553729 0.730807 0.05)
(0.537028 0.775134 0.05)
(0.347997 0.780152 0.05)
(0.308414 0.758965 0.05)
(0.292003 0.735371 0.05)
(0.275282 0.733694 0.05)
(0.317949 0.744173 0.05)
(0.273851 0.706256 0.05)
(0.247311 0.70418 0.05)
(0.231752 0.67705 0.05)
(0.218268 0.632627 0.05)
(0.22627 0.584793 0.05)
(0.213742 0.59019 0.05)
(0.237354 0.599609 0.05)
(0.243369 0.565287 0.05)
(0.216108 0.552488 0.05)
(0.422944 0.299746 0.05)
(0.434965 0.285031 0.05)
(0.463579 0.29983 0.05)
(0.449429 0.272222 0.05)
(0.496915 0.314676 0.05)
(0.498116 0.302403 0.05)
(0.466017 0.26044 0.05)
(0.515565 0.7846 0.05)
(0.480014 0.79571 0.05)
(0.471115 0.78929 0.05)
(0.433698 0.800764 0.05)
(0.49707 0.773848 0.05)
(0.44751 0.786039 0.05)
(0.383683 0.792994 0.05)
(0.605745 0.627768 0.05)
(0.595452 0.639277 0.05)
(0.553907 0.638652 0.05)
(0.589776 0.650076 0.05)
(0.53299 0.628895 0.05)
(0.504402 0.648081 0.05)
(0.588536 0.661479 0.05)
(0.385029 0.352912 0.05)
(0.394941 0.338745 0.05)
(0.43718 0.342262 0.05)
(0.404297 0.324468 0.05)
(0.467164 0.349971 0.05)
(0.481495 0.338772 0.05)
(0.414179 0.310416 0.05)
(0.589959 0.671047 0.05)
(0.592525 0.685073 0.05)
(0.562702 0.676522 0.05)
(0.593133 0.701082 0.05)
(0.495763 0.679819 0.05)
(0.523445 0.68208 0.05)
(0.589724 0.718572 0.05)
(0.351307 0.407683 0.05)
(0.360493 0.394141 0.05)
(0.395115 0.397086 0.05)
(0.369756 0.379681 0.05)
(0.406304 0.410128 0.05)
(0.425137 0.387247 0.05)
(0.378958 0.364722 0.05)
(0.616242 0.238386 0.05)
(0.654812 0.254273 0.05)
(0.666001 0.267941 0.05)
(0.689443 0.276691 0.05)
(0.637889 0.259215 0.05)
(0.680875 0.284306 0.05)
(0.717304 0.3036 0.05)
(0.277292 0.459679 0.05)
(0.291079 0.45438 0.05)
(0.325995 0.509649 0.05)
(0.30219 0.450226 0.05)
(0.324081 0.548631 0.05)
(0.335298 0.539091 0.05)
(0.311434 0.445457 0.05)
(0.698169 0.542711 0.05)
(0.68625 0.554932 0.05)
(0.661617 0.545732 0.05)
(0.675008 0.565696 0.05)
(0.654199 0.518985 0.05)
(0.641531 0.523887 0.05)
(0.664057 0.576494 0.05)
(0.686196 0.531084 0.05)
(0.678115 0.512042 0.05)
(0.66494 0.514593 0.05)
(0.641621 0.56353 0.05)
(0.631097 0.528043 0.05)
(0.621926 0.539946 0.05)
(0.306297 0.506906 0.05)
(0.305862 0.552803 0.05)
(0.315207 0.55446 0.05)
(0.341569 0.493407 0.05)
(0.344748 0.530709 0.05)
(0.353815 0.516563 0.05)
(0.738096 0.456565 0.05)
(0.734879 0.442448 0.05)
(0.723938 0.469082 0.05)
(0.373224 0.432857 0.05)
(0.383108 0.453067 0.05)
(0.394338 0.431155 0.05)
(0.241789 0.526643 0.05)
(0.255018 0.548951 0.05)
(0.268071 0.540927 0.05)
(0.587555 0.613899 0.05)
(0.577303 0.595543 0.05)
(0.555734 0.612523 0.05)
(0.542585 0.658351 0.05)
(0.484855 0.663282 0.05)
(0.481225 0.675226 0.05)
(0.450785 0.321547 0.05)
(0.494855 0.331215 0.05)
(0.499595 0.323536 0.05)
(0.576959 0.705012 0.05)
(0.537778 0.688579 0.05)
(0.552487 0.698153 0.05)
(0.480456 0.273939 0.05)
(0.502198 0.292602 0.05)
(0.504579 0.281111 0.05)
(0.416699 0.366089 0.05)
(0.442922 0.37223 0.05)
(0.458053 0.359848 0.05)
(0.721929 0.318699 0.05)
(0.706899 0.309019 0.05)
(0.72588 0.336429 0.05)
(0.534875 0.76425 0.05)
(0.541385 0.744435 0.05)
(0.523141 0.75897 0.05)
(0.238463 0.666496 0.05)
(0.251795 0.670621 0.05)
(0.24088 0.633597 0.05)
(0.374997 0.781383 0.05)
(0.402822 0.781104 0.05)
(0.358652 0.765434 0.05)
(0.590603 0.239793 0.05)
(0.566805 0.246731 0.05)
(0.60124 0.248272 0.05)
)


// ************************************************************************* //
