/*--------------------------------*- C++ -*----------------------------------*\
| =========                 |                                                 |
| \\      /  F ield         | OpenFOAM: The Open Source CFD Toolbox           |
|  \\    /   O peration     | Version:  v1806                                 |
|   \\  /    A nd           | Web:      www.OpenFOAM.com                      |
|    \\/     M anipulation  |                                                 |
\*---------------------------------------------------------------------------*/
FoamFile
{
    version     2.0;
    format      ascii;
    class       volScalarField;
    location    "0.05";
    object      p;
}
// * * * * * * * * * * * * * * * * * * * * * * * * * * * * * * * * * * * * * //

dimensions      [0 2 -2 0 0 0 0];


internalField   nonuniform List<scalar> 
5400
(
2.51268
2.06998
1.85954
1.76453
1.70009
1.64936
1.60777
1.57101
1.53617
1.50185
1.46722
1.43166
1.39464
1.35574
1.3146
1.27094
1.22455
1.1752
1.12289
1.06765
1.00962
0.949061
0.886311
0.821829
0.756161
0.689932
0.62382
0.558544
0.494814
0.433324
0.374712
0.319538
0.268266
0.221252
0.178737
0.140837
0.107562
0.0788257
0.0544624
0.0342322
0.0178392
0.00495349
-0.00476876
-0.0116786
-0.0161264
-0.0184573
-0.0189953
-0.0180411
-0.0158685
-0.0127298
-0.00885419
-0.00444357
0.000328917
0.00531142
0.0103737
0.0154075
0.0203182
0.0250268
0.0294791
0.0336163
0.037404
0.0408188
0.0438386
0.0464466
0.0486319
0.0503952
0.0517473
0.052698
0.0532521
0.0534155
0.0532019
0.05263
0.0517196
0.0504882
0.0489525
0.047129
0.0450356
0.0426914
0.0401165
0.0373311
0.0343548
0.0312058
0.0279018
0.0244605
0.0208999
0.0172382
0.013494
0.00968662
0.00583234
0.00194756
2.09838
1.93911
1.82269
1.7559
1.70137
1.65257
1.61108
1.57423
1.5392
1.50471
1.47001
1.43445
1.39748
1.35865
1.31757
1.27392
1.22742
1.17799
1.12554
1.0701
1.0118
0.950872
0.887686
0.8227
0.756478
0.689661
0.622953
0.557085
0.492798
0.430804
0.371765
0.316255
0.264741
0.217583
0.175017
0.137158
0.104002
0.0754463
0.0513084
0.0313374
0.0152282
0.00263858
-0.0067894
-0.0134168
-0.0175966
-0.0196734
-0.0199741
-0.0188055
-0.0164438
-0.0131403
-0.00911996
-0.00458166
0.000299971
0.00537683
0.0105172
0.0156113
0.0205711
0.0253198
0.0298005
0.0339602
0.0377645
0.0411852
0.0442047
0.0468114
0.0489971
0.0507584
0.0521009
0.0530365
0.0535767
0.0537289
0.0535025
0.0529147
0.0519878
0.0507414
0.0491909
0.0473515
0.045241
0.0428799
0.040289
0.0374885
0.0344971
0.0313325
0.0280124
0.0245549
0.0209783
0.0173014
0.013543
0.00972178
0.00585427
0.00195613
1.94661
1.86624
1.79239
1.74342
1.69688
1.65118
1.61128
1.57554
1.54135
1.50756
1.47348
1.4385
1.40205
1.36368
1.32296
1.27957
1.23325
1.18383
1.13122
1.07543
1.01658
0.954931
0.890831
0.824771
0.757342
0.689225
0.621172
0.553967
0.488405
0.42525
0.365208
0.308889
0.256784
0.209256
0.166534
0.128721
0.0957897
0.0676097
0.0439618
0.0245605
0.00907362
-0.00286282
-0.0116289
-0.0176073
-0.021169
-0.0226675
-0.0224312
-0.0207708
-0.0179657
-0.0142678
-0.00990321
-0.00506408
7.58283e-05
0.00537088
0.0106973
0.0159468
0.0210303
0.0258785
0.030433
0.034655
0.0385062
0.0419572
0.0449911
0.0476004
0.0497821
0.0515363
0.0528664
0.0537804
0.054292
0.0544151
0.0541614
0.0535452
0.0525861
0.0513049
0.0497191
0.0478445
0.045699
0.0433033
0.040678
0.0378424
0.0348148
0.0316137
0.0282576
0.0247654
0.0211552
0.0174455
0.0136542
0.00980039
0.00590079
0.0019717
1.84784
1.80123
1.75427
1.72172
1.68493
1.64497
1.60864
1.57537
1.54303
1.51072
1.47792
1.44406
1.40861
1.37109
1.33108
1.28823
1.24223
1.19289
1.14009
1.08382
1.02419
0.961433
0.895933
0.828201
0.758879
0.68871
0.61853
0.549186
0.481588
0.416577
0.354931
0.297314
0.244256
0.196133
0.153165
0.115423
0.082845
0.0552549
0.0323835
0.0138905
-0.00060781
-0.0115159
-0.0192455
-0.0242064
-0.0267936
-0.0273793
-0.0263027
-0.0238742
-0.0203764
-0.0160612
-0.0111529
-0.00584364
-0.000299858
0.00533801
0.0109514
0.0164444
0.0217286
0.0267362
0.0314147
0.0357253
0.0396413
0.0431396
0.0462031
0.0488228
0.0509978
0.0527353
0.054043
0.0549282
0.0554028
0.0554829
0.0551838
0.0545209
0.0535127
0.0521792
0.0505388
0.0486093
0.0464097
0.0439602
0.0412808
0.0383899
0.0353063
0.0320496
0.0286394
0.0250946
0.0214326
0.0176712
0.0138285
0.00992403
0.00597463
0.00199615
1.78207
1.74901
1.71811
1.69804
1.67005
1.63623
1.60426
1.57425
1.5445
1.51436
1.48343
1.45122
1.41723
1.38099
1.34205
1.30004
1.25455
1.20541
1.15243
1.09558
1.03491
0.970682
0.90327
0.833232
0.761271
0.688223
0.615022
0.542688
0.472216
0.404584
0.340677
0.281239
0.226851
0.177909
0.13462
0.0970119
0.0649612
0.038224
0.0164589
-0.000748003
-0.0138527
-0.0233214
-0.0296128
-0.0331704
-0.0344192
-0.0337495
-0.0315189
-0.0280426
-0.0236028
-0.0184528
-0.0128109
-0.00686587
-0.000775789
0.00532803
0.0113309
0.0171454
0.0226961
0.0279166
0.032761
0.0371912
0.0411931
0.04475
0.0478502
0.0504853
0.0526544
0.0543683
0.055642
0.0564866
0.0569131
0.0569364
0.0565739
0.0558446
0.0547678
0.0533629
0.0516489
0.0496454
0.0473722
0.0448491
0.0420949
0.0391285
0.0359699
0.03264
0.0291584
0.0255427
0.02181
0.0179785
0.0140665
0.0100936
0.00607601
0.00202947
1.73572
1.70868
1.68703
1.67569
1.65483
1.62669
1.59924
1.57289
1.54622
1.51876
1.49021
1.46015
1.4281
1.39356
1.35609
1.31528
1.27054
1.22177
1.16867
1.11114
1.04922
0.983123
0.913252
0.840207
0.764777
0.687919
0.610725
0.534378
0.460064
0.388935
0.322026
0.260195
0.204084
0.154111
0.110461
0.0731029
0.0418253
0.0162807
-0.00397671
-0.0194593
-0.0307127
-0.0382824
-0.0426924
-0.0444307
-0.0439567
-0.0416823
-0.0379799
-0.0331727
-0.027544
-0.0213435
-0.0147829
-0.00804313
-0.00127114
0.00541135
0.0118996
0.0181116
0.0239836
0.0294606
0.0345065
0.0390854
0.0431949
0.0468206
0.0499579
0.052605
0.0547646
0.0564491
0.0576771
0.0584649
0.0588266
0.0587768
0.0583338
0.0575186
0.0563528
0.0548565
0.0530494
0.0509522
0.0485852
0.0459679
0.0431193
0.0400589
0.0368079
0.033387
0.029815
0.026109
0.0222869
0.0183675
0.0143684
0.0103082
0.00620359
0.00207122
1.70107
1.67702
1.66095
1.65575
1.64058
1.6175
1.59442
1.57188
1.54861
1.52422
1.49851
1.47108
1.44144
1.40908
1.37347
1.33406
1.2906
1.24245
1.18935
1.13111
1.06772
0.999361
0.926436
0.849602
0.769751
0.688
0.605646
0.524102
0.444809
0.369159
0.298395
0.233526
0.175281
0.124092
0.0801029
0.0431933
0.0130284
-0.0108827
-0.0291304
-0.0423591
-0.0512293
-0.0563813
-0.0584174
-0.0578849
-0.0552795
-0.0510372
-0.0455424
-0.0391239
-0.0320632
-0.0246014
-0.0169423
-0.00925763
-0.00167992
0.00568267
0.0127383
0.0194161
0.0256602
0.0314288
0.0366886
0.0414498
0.0456807
0.0493809
0.0525535
0.0552049
0.0573457
0.0589913
0.0601609
0.0608749
0.0611522
0.0610095
0.0604662
0.0595455
0.0582708
0.0566635
0.0547438
0.0525325
0.0500504
0.0473179
0.0443548
0.0411819
0.03782
0.0342888
0.0306067
0.026792
0.0228627
0.0188372
0.0147321
0.010566
0.00635673
0.00212162
1.67406
1.65171
1.63925
1.6385
1.62792
1.60927
1.59034
1.57165
1.55198
1.53101
1.50856
1.48422
1.4575
1.42785
1.39467
1.35734
1.31536
1.26812
1.21519
1.15627
1.09123
1.0202
0.943573
0.862062
0.776684
0.688752
0.599831
0.511657
0.426011
0.344613
0.268988
0.200352
0.13954
0.0869937
0.0427801
0.00663927
-0.0219405
-0.0436417
-0.059247
-0.0695735
-0.0754277
-0.0775676
-0.0766835
-0.0733881
-0.0682172
-0.0616318
-0.0540199
-0.0457111
-0.0369819
-0.0280615
-0.0191383
-0.0103684
-0.00187185
0.00625836
0.0139486
0.0211473
0.0278093
0.0339034
0.0394111
0.0443448
0.0486962
0.052468
0.0556693
0.0583135
0.0604199
0.0620095
0.063104
0.0637261
0.0638983
0.0636412
0.0629768
0.0619298
0.0605248
0.0587844
0.0567302
0.0543835
0.051766
0.0488986
0.0458021
0.042497
0.0390037
0.0353422
0.0315316
0.0275904
0.0235362
0.0193858
0.0151559
0.0108666
0.00653646
0.00218145
1.65233
1.63107
1.62114
1.62378
1.61699
1.60227
1.58726
1.57243
1.55654
1.5393
1.52051
1.49977
1.47653
1.45016
1.42
1.38532
1.3454
1.29952
1.24707
1.18757
1.12077
1.04668
0.965657
0.878455
0.786237
0.690566
0.593359
0.496777
0.403072
0.31442
0.23273
0.15949
0.0956678
0.0416932
-0.00249566
-0.0373706
-0.0637005
-0.0824311
-0.0945926
-0.101224
-0.10331
-0.10175
-0.0973329
-0.0907421
-0.0825478
-0.0732294
-0.0631755
-0.0527074
-0.042085
-0.0315204
-0.0211844
-0.0112114
-0.00170132
0.00727253
0.0156546
0.0234113
0.0305175
0.0369437
0.0427121
0.0478221
0.0522865
0.0561196
0.0593373
0.0619597
0.0640134
0.0655256
0.0665217
0.0670281
0.0670712
0.0666765
0.065869
0.0646745
0.0631176
0.0612217
0.05901
0.0565061
0.0537325
0.0507104
0.04746
0.0440018
0.040357
0.0365464
0.0325892
0.028503
0.0243049
0.0200116
0.0156404
0.0112121
0.00674425
0.00225104
1.6343
1.61384
1.60583
1.61119
1.60763
1.59648
1.58523
1.57427
1.56235
1.54915
1.53446
1.51784
1.4987
1.47631
1.44988
1.41858
1.38143
1.33755
1.28605
1.22626
1.15767
1.08016
0.993991
0.899932
0.799307
0.693987
0.586342
0.479112
0.375186
0.277387
0.188162
0.109357
0.0420899
-0.0132615
-0.0569738
-0.0898359
-0.112984
-0.127731
-0.135433
-0.137399
-0.13483
-0.128781
-0.120149
-0.10968
-0.097982
-0.0855361
-0.0727203
-0.0598338
-0.0471119
-0.0347423
-0.022868
-0.0115946
-0.000996278
0.00887456
0.0179852
0.0263225
0.0338935
0.0406536
0.0466718
0.0519499
0.0565113
0.0603843
0.0635954
0.0661725
0.0681486
0.069557
0.0704293
0.0707959
0.070686
0.0701284
0.069152
0.0677845
0.0660509
0.0639755
0.0615837
0.0589005
0.0559491
0.0527504
0.0493249
0.0456939
0.0418792
0.0379011
0.0337782
0.0295279
0.0251677
0.0207153
0.0161873
0.0116035
0.00697992
0.00232981
1.61879
1.59899
1.59255
1.60023
1.59954
1.59172
1.58412
1.57708
1.56932
1.5605
1.55038
1.53848
1.52414
1.50655
1.48477
1.45774
1.4243
1.38325
1.33343
1.27381
1.2036
1.12239
1.03029
0.928038
0.817122
0.699776
0.578957
0.458181
0.341252
0.231886
0.133296
0.0478195
-0.0232689
-0.0797336
-0.122205
-0.151949
-0.170623
-0.180041
-0.181993
-0.178119
-0.169856
-0.158424
-0.144827
-0.129864
-0.11416
-0.0981886
-0.0823018
-0.0667623
-0.0517646
-0.0374546
-0.0239393
-0.0112955
0.000435714
0.0112334
0.0210888
0.0300026
0.0379805
0.0451077
0.0513622
0.0567866
0.0614219
0.0653092
0.0684857
0.0709883
0.0728563
0.0741293
0.0748462
0.0750426
0.0747508
0.0740024
0.0728291
0.0712603
0.0693231
0.067044
0.0644494
0.0615647
0.0584127
0.0550155
0.0513946
0.0475722
0.0435689
0.0394041
0.0350962
0.0306638
0.0261251
0.0214976
0.0167961
0.0120388
0.00724119
0.00241678
1.6049
1.58567
1.58059
1.59033
1.5923
1.58764
1.58366
1.58062
1.57724
1.57316
1.56812
1.5616
1.55288
1.54103
1.52498
1.50341
1.47488
1.43784
1.39073
1.33207
1.26062
1.17559
1.07679
0.964848
0.841371
0.709021
0.571504
0.433395
0.299772
0.17567
0.0654138
-0.0279914
-0.103136
-0.160097
-0.200089
-0.225093
-0.237507
-0.239826
-0.234394
-0.223257
-0.208109
-0.190313
-0.17095
-0.15085
-0.130636
-0.110756
-0.0915152
-0.0731135
-0.055691
-0.0393426
-0.0241251
-0.0100708
0.00281388
0.0145398
0.0251264
0.0346003
0.0430175
0.0504317
0.0568799
0.0624129
0.067084
0.0709455
0.0740467
0.0764358
0.0781587
0.0792608
0.0797872
0.0797792
0.0792732
0.0783035
0.0769035
0.0751046
0.0729364
0.0704274
0.0676051
0.0644949
0.0611202
0.0575041
0.0536686
0.049635
0.045423
0.0410518
0.036541
0.0319101
0.0271768
0.0223567
0.0174632
0.0125143
0.00752588
0.00251146
1.59183
1.57313
1.56928
1.58092
1.5854
1.58382
1.58344
1.58452
1.58576
1.58681
1.5874
1.587
1.58481
1.57985
1.57081
1.55615
1.5341
1.50265
1.45972
1.40324
1.33134
1.24263
1.13646
1.01316
0.874406
0.723296
0.564481
0.403973
0.248671
0.105594
-0.0192563
-0.121961
-0.201082
-0.257337
-0.292902
-0.310818
-0.314516
-0.307407
-0.292548
-0.272455
-0.249073
-0.223865
-0.197928
-0.172074
-0.146879
-0.122734
-0.0998828
-0.0784547
-0.0585101
-0.0400651
-0.0231175
-0.00765084
0.0063699
0.0189944
0.0302738
0.0402697
0.0490635
0.0567213
0.06331
0.0688982
0.0735537
0.0773404
0.0803191
0.0825481
0.0840819
0.0849723
0.0852695
0.0850186
0.0842609
0.0830346
0.0813757
0.0793172
0.0768901
0.0741243
0.0710483
0.0676886
0.0640696
0.060214
0.0561434
0.0518779
0.0474373
0.0428417
0.0381112
0.033265
0.0283192
0.0232879
0.0181846
0.013028
0.00783366
0.00261409
1.57889
1.56068
1.55798
1.57141
1.57828
1.57972
1.58295
1.58826
1.59436
1.60094
1.60775
1.61425
1.61962
1.62285
1.62239
1.61645
1.60287
1.57911
1.54243
1.48996
1.41897
1.32719
1.21319
1.07681
0.91955
0.744944
0.558767
0.368974
0.185113
0.0172133
-0.126002
-0.23937
-0.321754
-0.375157
-0.403293
-0.410759
-0.402411
-0.382853
-0.356025
-0.324981
-0.291891
-0.258218
-0.224951
-0.19279
-0.162219
-0.133537
-0.10689
-0.0823116
-0.0597796
-0.0392297
-0.0205824
-0.00375354
0.0113452
0.0248012
0.03669
0.0471516
0.056251
0.0640839
0.0707436
0.0763196
0.0808947
0.0845447
0.0873417
0.0893542
0.090646
0.091277
0.091301
0.0907664
0.0897183
0.0881991
0.0862471
0.0838971
0.0811813
0.0781312
0.0747764
0.0711438
0.0672576
0.0631402
0.0588127
0.0542953
0.049608
0.044771
0.0398039
0.0347244
0.0295476
0.0242879
0.0189592
0.0135803
0.00816529
0.00272493
1.56542
1.54768
1.54606
1.56117
1.57036
1.57475
1.5816
1.59122
1.6024
1.61488
1.62849
1.64274
1.65683
1.66967
1.67961
1.68459
1.682
1.6687
1.64111
1.59533
1.52744
1.43392
1.31215
1.16103
0.981573
0.777548
0.555945
0.327271
0.105072
-0.096049
-0.262574
-0.387664
-0.471313
-0.518144
-0.534289
-0.52652
-0.501633
-0.465773
-0.42392
-0.379659
-0.335285
-0.292122
-0.250906
-0.212059
-0.175859
-0.142465
-0.111921
-0.0841641
-0.0590635
-0.036458
-0.0161815
0.00192117
0.017998
0.0321587
0.0445963
0.0554048
0.0647075
0.0726235
0.0792658
0.0847435
0.0891569
0.0925964
0.0951452
0.09688
0.0978727
0.0981897
0.0978903
0.097027
0.095648
0.0937981
0.0915172
0.0888419
0.085807
0.0824452
0.0787861
0.0748558
0.0706781
0.0662758
0.0616704
0.0568824
0.0519311
0.0468355
0.0416139
0.0362834
0.0308591
0.0253557
0.0197874
0.0141716
0.00852057
0.00284362
1.55083
1.53351
1.5329
1.5496
1.561
1.56825
1.57866
1.59264
1.60905
1.62776
1.6487
1.6715
1.69549
1.71955
1.742
1.76051
1.77206
1.7728
1.75815
1.7229
1.66153
1.56875
1.44014
1.27304
1.0674
0.826715
0.559045
0.277983
0.00210525
-0.244411
-0.440742
-0.577554
-0.657969
-0.691991
-0.689243
-0.659466
-0.612028
-0.555044
-0.494629
-0.434734
-0.377541
-0.324002
-0.274384
-0.228676
-0.186815
-0.148737
-0.11434
-0.0834586
-0.0558669
-0.0313173
-0.00955075
0.00966683
0.0265548
0.0413365
0.0541576
0.0651795
0.0745585
0.0824386
0.0889546
0.0942338
0.0983926
0.101536
0.103759
0.105146
0.105776
0.105721
0.105045
0.103804
0.10205
0.0998281
0.097181
0.094147
0.0907627
0.0870609
0.0830702
0.0788162
0.074323
0.0696141
0.0647113
0.0596341
0.0544005
0.0490284
0.0435355
0.0379382
0.0322518
0.0264907
0.0206681
0.0148001
0.0088975
0.0029692
1.53454
1.51762
1.51793
1.5361
1.54955
1.55951
1.57337
1.59164
1.61334
1.63848
1.66718
1.69923
1.73412
1.77123
1.80855
1.84365
1.87315
1.8925
1.89594
1.87662
1.82692
1.73908
1.60609
1.42283
1.18717
0.901291
0.573323
0.221085
-0.12373
-0.439398
-0.673753
-0.819783
-0.888578
-0.901311
-0.870802
-0.810139
-0.732271
-0.648275
-0.565505
-0.487723
-0.41645
-0.35194
-0.293767
-0.241298
-0.193981
-0.15144
-0.113403
-0.0795957
-0.049702
-0.0234102
-0.000358208
0.0198017
0.0373495
0.0525289
0.0655527
0.0766201
0.0859189
0.0936202
0.0998813
0.104847
0.108646
0.111398
0.113207
0.114168
0.114365
0.113875
0.112765
0.111095
0.108918
0.106283
0.103232
0.0998054
0.0960402
0.0919685
0.0876183
0.0830152
0.078184
0.0731481
0.0679282
0.0625426
0.0570084
0.051343
0.0455633
0.0396851
0.0337224
0.0276889
0.021597
0.0154617
0.00929345
0.00310086
1.51605
1.49948
1.5006
1.52007
1.53536
1.5478
1.56488
1.58724
1.61411
1.64571
1.68244
1.72432
1.77079
1.82292
1.87754
1.93264
1.98464
2.0283
2.05659
2.06066
2.03019
1.95406
1.8216
1.624
1.35581
1.01612
0.609429
0.147345
-0.350635
-0.727255
-1.00727
-1.15125
-1.18542
-1.15955
-1.08533
-0.979736
-0.859886
-0.741257
-0.632267
-0.535055
-0.449264
-0.373813
-0.307341
-0.2485
-0.196185
-0.149634
-0.108362
-0.0719724
-0.0400427
-0.0123349
0.0117776
0.0326373
0.050583
0.0659269
0.0789373
0.0898536
0.0988929
0.106252
0.112109
0.116627
0.11995
0.122205
0.123506
0.123955
0.123644
0.122651
0.121046
0.118892
0.116245
0.113153
0.10966
0.105806
0.101627
0.0971559
0.0924194
0.0874434
0.0822524
0.0768687
0.0713117
0.0655987
0.0597467
0.0537725
0.0476917
0.0415182
0.0352647
0.0289442
0.0225686
0.0161529
0.00970677
0.0032383
1.49494
1.47864
1.48042
1.50097
1.51782
1.53239
1.55231
1.57838
1.61007
1.64792
1.69269
1.74502
1.80548
1.87236
1.94633
2.02502
2.1047
2.17962
2.24146
2.27906
2.27864
2.22464
2.10131
1.89472
1.59443
1.19426
0.694767
0.119611
-0.465017
-1.05598
-1.40914
-1.53318
-1.50422
-1.44435
-1.32252
-1.16161
-0.986779
-0.825638
-0.688028
-0.571653
-0.472466
-0.387237
-0.313426
-0.248995
-0.192358
-0.142396
-0.0984513
-0.0599956
-0.0266074
0.0023577
0.0272071
0.0484377
0.0664824
0.0817153
0.0944593
0.104995
0.113568
0.120399
0.125687
0.12961
0.132324
0.133967
0.134659
0.134507
0.133606
0.132038
0.129875
0.127183
0.124017
0.120424
0.116449
0.112132
0.107508
0.102609
0.0974615
0.0920896
0.086517
0.0807646
0.0748509
0.0687931
0.0626076
0.05631
0.0499135
0.0434301
0.0368715
0.0302505
0.0235792
0.0168718
0.010137
0.00338154
1.47082
1.45472
1.45697
1.47831
1.49634
1.51257
1.53477
1.56395
1.59982
1.64328
1.69555
1.75775
1.83084
1.91496
2.0107
2.11667
2.22974
2.34412
2.45047
2.53512
2.57998
2.56351
2.46308
2.25825
1.93287
1.47091
0.8431
0.0245712
-0.984095
-1.79809
-2.24693
-2.2602
-2.02975
-1.86054
-1.62337
-1.3683
-1.10866
-0.892092
-0.724551
-0.591608
-0.482211
-0.389842
-0.310533
-0.241727
-0.181638
-0.128923
-0.083001
-0.0429767
-0.00844156
0.0211346
0.0462591
0.0674697
0.0852596
0.100061
0.112247
0.122138
0.130009
0.136106
0.140644
0.143811
0.145776
0.146682
0.146657
0.145809
0.144235
0.142019
0.139236
0.135949
0.132214
0.128076
0.123581
0.118766
0.113667
0.108313
0.10273
0.0969392
0.090964
0.0848234
0.0785354
0.0721166
0.0655826
0.0589467
0.05222
0.0454128
0.0385366
0.0316042
0.024627
0.0176177
0.0105838
0.00353041
1.44345
1.42744
1.42994
1.45172
1.47044
1.48772
1.51146
1.54286
1.58192
1.62993
1.68861
1.75977
1.8452
1.9464
2.0651
2.20147
2.35365
2.51672
2.68099
2.83044
2.9417
2.9849
2.92751
2.74117
2.4079
1.91026
1.19055
0.166891
-1.12251
-2.3275
-2.93387
-2.64554
-2.02066
-2.19195
-1.90407
-1.56959
-1.18707
-0.91513
-0.7282
-0.587638
-0.474624
-0.379601
-0.297547
-0.225979
-0.163495
-0.109015
-0.0614278
-0.0204075
0.0146484
0.044327
0.0692325
0.0899691
0.107093
0.121093
0.132392
0.141345
0.148258
0.153394
0.156984
0.159226
0.160292
0.160333
0.159478
0.157836
0.155505
0.152569
0.149101
0.145165
0.140811
0.136087
0.131033
0.125688
0.120085
0.114249
0.108206
0.101975
0.0955782
0.089032
0.0823537
0.0755589
0.0686617
0.0616733
0.0546029
0.0474601
0.040256
0.0330028
0.0257102
0.0183892
0.0110458
0.00368427
1.41267
1.39663
1.39912
1.42093
1.43977
1.45735
1.48167
1.51415
1.55503
1.60599
1.66933
1.74764
1.84385
1.96105
2.10216
2.27063
2.46681
2.68811
2.92613
3.16336
3.37026
3.50471
3.51788
3.36969
3.05368
2.57124
1.82195
0.491396
-2.5934
-6.76313
-8.79647
-8.43984
-5.68422
-3.81885
-2.44472
-1.85224
-1.16498
-0.853518
-0.682922
-0.554431
-0.448049
-0.356053
-0.274259
-0.201522
-0.137401
-0.0814927
-0.0331493
0.00817594
0.0430976
0.0722729
0.0963901
0.11613
0.132119
0.144903
0.154949
0.162646
0.168322
0.172257
0.17469
0.175826
0.17584
0.174884
0.173085
0.170552
0.16738
0.163652
0.159438
0.154797
0.149778
0.144426
0.13878
0.132874
0.126737
0.120395
0.113869
0.10718
0.100343
0.0933754
0.0862921
0.0791074
0.0718334
0.0644797
0.0570543
0.0495661
0.0420252
0.0344423
0.0268251
0.0191829
0.0115207
0.00384227
1.37849
1.36229
1.36447
1.38585
1.40417
1.42116
1.44495
1.47706
1.51798
1.56973
1.63517
1.71772
1.82154
1.95159
2.11345
2.31235
2.55493
2.84282
3.17194
3.52617
3.86998
4.14238
4.26219
4.15919
3.87646
3.46392
1.36191
-6.68018
-22.8741
-34.1735
-39.0564
-35.8102
-28.0806
-20.0831
-9.4822
-3.87913
-1.19424
-0.666307
-0.559775
-0.488439
-0.405189
-0.321791
-0.241886
-0.16857
-0.103273
-0.0464412
0.00218765
0.04319
0.0772882
0.105272
0.12795
0.146101
0.160428
0.171536
0.179929
0.186026
0.19017
0.192652
0.193713
0.193559
0.192366
0.19028
0.187426
0.183906
0.179813
0.175223
0.170203
0.164806
0.159079
0.153062
0.146789
0.140292
0.133597
0.126726
0.119698
0.112532
0.10524
0.0978363
0.0903346
0.0827474
0.0750851
0.0673556
0.0595659
0.0517237
0.0438377
0.0359166
0.0279662
0.0199946
0.012006
0.00400362
1.34104
1.32455
1.32613
1.34659
1.36367
1.37913
1.4011
1.43118
1.47001
1.51984
1.58397
1.66656
1.77296
1.91006
2.08644
2.31227
2.59821
2.95644
3.39283
3.89959
4.44051
4.92764
5.21329
5.11793
4.67526
1.90376
-11.0061
-35.9582
-51.9606
-60.2153
-62.7086
-61.2948
-55.7287
-46.5272
-29.3437
-13.0386
-3.01476
-0.797208
-0.521945
-0.446341
-0.371816
-0.286169
-0.203554
-0.127881
-0.0608927
-0.00329475
0.0451255
0.0851021
0.117584
0.143581
0.164074
0.179968
0.192049
0.200977
0.207289
0.211422
0.21373
0.2145
0.213972
0.212347
0.209794
0.20645
0.202432
0.197835
0.192743
0.187227
0.181345
0.175147
0.168671
0.161954
0.155025
0.147911
0.140634
0.133214
0.125668
0.118009
0.110247
0.102395
0.0944639
0.086464
0.078404
0.0702901
0.0621279
0.0539241
0.0456855
0.0374188
0.0291282
0.0208206
0.0124998
0.00416785
1.30065
1.28373
1.28441
1.30346
1.31859
1.33152
1.35033
1.3766
1.41094
1.45569
1.51434
1.59151
1.69346
1.82879
2.00911
2.2498
2.57047
2.99383
3.54429
4.24022
5.06575
5.90755
6.48479
6.27792
3.51739
-11.1383
-40.6523
-55.3496
-62.3766
-66.0009
-63.2471
-57.3159
-53.4945
-50.9907
-45.9794
-27.6043
-8.86451
-0.895983
-0.39253
-0.372167
-0.32847
-0.246694
-0.158812
-0.0785875
-0.00914888
0.0490022
0.0964844
0.134483
0.164348
0.187402
0.204847
0.217731
0.226927
0.233136
0.236919
0.238716
0.238877
0.23768
0.235352
0.232081
0.228023
0.223302
0.218019
0.212261
0.2061
0.199598
0.192806
0.185763
0.178505
0.171058
0.163447
0.155693
0.147815
0.13983
0.13175
0.123585
0.115343
0.107032
0.0986624
0.0902418
0.0817766
0.0732711
0.0647299
0.0561581
0.0475608
0.0389427
0.0303066
0.0216585
0.013001
0.00433463
1.25778
1.24032
1.23981
1.257
1.26951
1.27896
1.29331
1.31396
1.34135
1.37764
1.42617
1.49151
1.58021
1.70178
1.87009
2.10528
2.43631
2.90338
3.55856
4.45452
5.67834
7.15501
8.23558
5.76641
-8.01873
-39.7998
-57.3569
-60.1516
-53.8367
-47.4253
-37.5641
-23.3233
-20.9223
-34.3299
-48.1842
-44.0568
-16.701
-2.99174
-0.693137
-0.428495
-0.328489
-0.217224
-0.109804
-0.0195346
0.0537215
0.111962
0.157322
0.191972
0.217904
0.236845
0.250243
0.259284
0.264906
0.267836
0.268633
0.267723
0.265437
0.262028
0.257702
0.252624
0.246928
0.24072
0.234084
0.227091
0.219801
0.212264
0.204518
0.196597
0.188525
0.180325
0.172011
0.1636
0.155106
0.146543
0.137917
0.129236
0.120504
0.111727
0.102913
0.0940654
0.0851892
0.0762868
0.0673615
0.0584171
0.0494567
0.0404833
0.0314983
0.022506
0.0135081
0.00450349
1.21306
1.19494
1.19302
1.20797
1.21729
1.22245
1.23118
1.2446
1.26277
1.28736
1.32111
1.3679
1.43355
1.52701
1.6623
1.86168
2.16086
2.61673
3.32
4.40293
6.05359
8.5633
10.2157
-4.39803
-35.7925
-57.486
-59.7307
-47.6684
-38.888
-30.8552
-19.6435
-8.36825
-3.69724
-23.7855
-51.302
-53.4604
-23.6706
-4.59417
-0.862994
-0.434275
-0.313708
-0.174039
-0.0444728
0.0561506
0.131779
0.187947
0.228932
0.258187
0.27845
0.291859
0.300074
0.304369
0.305703
0.304789
0.302156
0.298189
0.293176
0.287334
0.280833
0.273806
0.266359
0.258571
0.250508
0.242221
0.233753
0.225139
0.216407
0.207581
0.198675
0.189701
0.180669
0.171589
0.162469
0.153318
0.144139
0.134935
0.125707
0.11646
0.107196
0.0979184
0.0886274
0.0793248
0.0700127
0.060693
0.0513671
0.0420359
0.0326993
0.0233604
0.0140194
0.00467371
1.1672
1.14837
1.14488
1.15731
1.16305
1.16331
1.16556
1.17051
1.17766
1.18789
1.20288
1.22508
1.25836
1.30908
1.38806
1.51401
1.72014
2.06626
2.66404
3.69048
5.69359
7.37523
-2.05551
-35.6023
-57.5522
-61.1814
-47.9294
-34.8116
-27.9095
-23.2637
-16.6977
-9.88581
-7.80768
-34.4983
-59.8931
-60.4756
-28.2707
-5.85025
-1.34091
-0.681384
-0.340742
-0.115386
0.0458067
0.155244
0.229238
0.279225
0.312336
0.333413
0.345863
0.352114
0.353918
0.352539
0.348884
0.343594
0.337122
0.329785
0.321804
0.313341
0.304519
0.295429
0.286141
0.276704
0.267158
0.257533
0.247852
0.238134
0.228394
0.218645
0.20889
0.199131
0.189372
0.179615
0.169864
0.160121
0.150385
0.140654
0.130929
0.121209
0.111494
0.101783
0.0920763
0.0823727
0.072673
0.0629772
0.0532846
0.0435943
0.0339048
0.0242179
0.0145323
0.00484442
1.12103
1.10146
1.09633
1.10613
1.10807
1.10315
1.09848
1.09428
1.08937
1.08364
1.07734
1.07083
1.06489
1.06129
1.06384
1.08047
1.12766
1.23889
1.48561
1.95292
3.41794
-4.17685
-32.0939
-57.7582
-62.6772
-50.363
-34.7144
-25.8181
-22.6658
-20.3528
-17.3265
-14.1025
-21.2937
-50.1983
-66.5263
-61.0041
-26.9154
-5.63524
-1.57856
-0.681673
-0.241744
0.0213531
0.187968
0.289655
0.351189
0.38768
0.40789
0.417304
0.419503
0.416877
0.411048
0.403121
0.393845
0.383718
0.373069
0.362109
0.350973
0.33975
0.328502
0.317271
0.306083
0.294953
0.283892
0.272903
0.261989
0.251152
0.240395
0.229714
0.219104
0.208558
0.198069
0.187634
0.177251
0.166915
0.156622
0.146366
0.136143
0.125951
0.115786
0.105643
0.0955207
0.0854172
0.0753309
0.0652596
0.0552005
0.0451512
0.0351089
0.0250741
0.0150444
0.00501479
1.07542
1.05512
1.04837
1.05558
1.05377
1.04371
1.03216
1.01884
1.00184
0.979978
0.951937
0.915684
0.868333
0.80584
0.722515
0.610178
0.456642
0.242127
-0.0647999
-0.56266
-1.4334
-23.7124
-57.9718
-70.9996
-61.4493
-39.2272
-25.1879
-21.6581
-20.855
-19.936
-18.6627
-20.159
-33.8835
-57.268
-64.8737
-51.512
-22.2324
-4.69405
-1.39513
-0.407031
0.0328323
0.265492
0.395641
0.464724
0.498911
0.512771
0.514351
0.508436
0.497997
0.484913
0.470391
0.455196
0.439806
0.424502
0.40944
0.394693
0.380287
0.366226
0.352499
0.339089
0.325977
0.313139
0.300554
0.288196
0.276048
0.264094
0.252321
0.240713
0.229252
0.217921
0.206707
0.1956
0.184589
0.173665
0.162818
0.15204
0.141325
0.130663
0.12005
0.109479
0.0989447
0.0884445
0.0779742
0.0675295
0.0571057
0.0466992
0.036306
0.0259253
0.0155536
0.00518417
1.03121
1.01025
1.00201
1.0068
1.00153
0.986732
0.968859
0.947192
0.91914
0.882582
0.834757
0.77146
0.686414
0.570145
0.408009
0.176417
-0.163954
-0.681838
-1.5209
-2.82088
-8.96119
-38.0132
-71.627
-82.0091
-58.2857
-30.3639
-20.1822
-19.3891
-20.3996
-20.9422
-21.6366
-28.6903
-44.0002
-56.6471
-53.6527
-35.8832
-11.3408
-1.62743
-0.152353
0.325876
0.525959
0.62381
0.666078
0.675613
0.667632
0.650379
0.628326
0.604067
0.57914
0.554453
0.530522
0.507613
0.485833
0.465184
0.445608
0.427019
0.409318
0.39241
0.376207
0.360629
0.345607
0.331078
0.316984
0.303276
0.289912
0.276859
0.264086
0.251565
0.239266
0.227163
0.215236
0.203466
0.191837
0.180333
0.168941
0.15765
0.146447
0.135324
0.124268
0.113274
0.102333
0.0914411
0.080591
0.0697766
0.0589919
0.0482318
0.0374914
0.0267684
0.0160579
0.005352
0.989206
0.967672
0.958145
0.960873
0.952641
0.933821
0.910639
0.882044
0.844964
0.796592
0.733161
0.64898
0.535525
0.379858
0.161945
-0.150677
-0.610492
-1.31578
-2.4354
-4.1586
-13.3426
-45.2705
-75.4265
-84.9431
-50.7222
-23.4952
-17.9578
-18.954
-20.9947
-23.0128
-27.2536
-38.0595
-50.0018
-51.8067
-40.5188
-16.1321
-0.193314
1.49656
1.39272
1.2441
1.12511
1.03977
0.968033
0.90379
0.845602
0.792643
0.744334
0.700244
0.660008
0.623285
0.589742
0.559048
0.530879
0.504926
0.4809
0.458539
0.437616
0.41793
0.399315
0.381629
0.364753
0.348582
0.333026
0.318007
0.303464
0.289345
0.275603
0.262194
0.24908
0.236226
0.223604
0.211188
0.198955
0.186885
0.174961
0.163167
0.151489
0.139911
0.128422
0.117012
0.105672
0.0943945
0.0831706
0.0719922
0.060852
0.0497437
0.0386611
0.0276006
0.0165559
0.00551776
0.950094
0.928117
0.917574
0.91868
0.908154
0.886271
0.859132
0.825517
0.782124
0.725841
0.652503
0.555909
0.426904
0.251842
0.0101584
-0.330459
-0.817252
-1.539
-2.56421
-4.05126
-12.7733
-44.1483
-72.7187
-70.6696
-39.8361
-17.6312
-15.7383
-18.608
-22.7031
-29.0046
-38.0683
-48.1409
-53.4564
-44.8631
-20.0576
-0.222965
4.68446
3.63702
2.63535
2.0418
1.67872
1.43515
1.25894
1.12452
1.01758
0.929718
0.855746
0.792348
0.737287
0.688975
0.646223
0.608101
0.573857
0.542872
0.51463
0.488702
0.464729
0.442415
0.421517
0.401834
0.3832
0.36547
0.348523
0.332259
0.316594
0.301457
0.286787
0.272527
0.258631
0.245055
0.231763
0.218723
0.205906
0.193289
0.18085
0.168568
0.156426
0.144406
0.132494
0.120679
0.108949
0.0972935
0.0857034
0.0741684
0.0626797
0.0512299
0.0398114
0.0284193
0.0170459
0.00568087
0.914429
0.892152
0.880904
0.880898
0.868835
0.844973
0.815405
0.778914
0.732232
0.672346
0.595325
0.49544
0.364485
0.190657
-0.0430898
-0.361839
-0.798722
-1.41231
-2.24972
-3.16806
-10.8014
-38.6526
-64.2115
-58.3487
-29.9331
-10.7942
-12.483
-18.9872
-28.071
-43.9221
-52.5019
-57.1504
-49.0299
-23.6824
-0.753157
6.83823
6.01089
4.4671
3.33512
2.59504
2.10109
1.75552
1.50463
1.31598
1.16937
1.05213
0.956082
0.875838
0.807722
0.749138
0.698184
0.653418
0.61372
0.578201
0.546147
0.51698
0.49023
0.465514
0.442522
0.421003
0.400745
0.381571
0.363333
0.345907
0.329193
0.313101
0.297557
0.282495
0.267858
0.253597
0.239667
0.226031
0.212657
0.199515
0.18658
0.173828
0.161238
0.14879
0.136469
0.124259
0.11215
0.100128
0.0881806
0.0762977
0.0644689
0.0526854
0.0409383
0.0292214
0.0175261
0.00584073
0.882607
0.860175
0.848546
0.847949
0.83512
0.810374
0.779902
0.742643
0.695593
0.636183
0.561218
0.46621
0.345071
0.189639
-0.0111869
-0.273532
-0.598834
-1.00735
-1.63149
-1.91035
-6.91304
-27.6364
-54.3265
-49.2918
-27.8976
-4.45428
-7.3158
-19.9325
-45.5663
-67.0719
-70.6021
-60.1842
-33.5512
-4.55292
7.90798
7.54927
6.07652
4.69656
3.6545
2.90752
2.37007
1.97785
1.68604
1.46388
1.29068
1.15254
1.04009
0.946925
0.86854
0.801714
0.744069
0.693808
0.649541
0.610182
0.574867
0.542905
0.513737
0.486913
0.462073
0.43892
0.417208
0.396733
0.377324
0.358841
0.341165
0.324194
0.307842
0.292035
0.276708
0.261804
0.247275
0.233077
0.219174
0.205534
0.192126
0.178925
0.165905
0.153046
0.14033
0.127741
0.115265
0.102887
0.0905934
0.0783727
0.0662131
0.0541046
0.0420373
0.0300039
0.0179946
0.00599675
0.854859
0.832407
0.820698
0.820002
0.807124
0.782492
0.752475
0.716287
0.671345
0.615747
0.547343
0.463303
0.360204
0.234565
0.0841802
-0.0923586
-0.31039
-0.541011
-0.795474
-0.829076
-1.68851
-15.3072
-39.1767