/*--------------------------------*- C++ -*----------------------------------*\
| =========                 |                                                 |
| \\      /  F ield         | OpenFOAM: The Open Source CFD Toolbox           |
|  \\    /   O peration     | Version:  v1806                                 |
|   \\  /    A nd           | Web:      www.OpenFOAM.com                      |
|    \\/     M anipulation  |                                                 |
\*---------------------------------------------------------------------------*/
FoamFile
{
    version     2.0;
    format      ascii;
    class       surfaceScalarField;
    location    "0.05";
    object      phi;
}
// * * * * * * * * * * * * * * * * * * * * * * * * * * * * * * * * * * * * * //

dimensions      [0 3 -1 0 0 0 0];
oriented        oriented;


internalField   nonuniform List<scalar> 
10650
(
0.00286619
0.000467148
0.00240726
0.000458923
0.00211861
0.000288657
0.00196141
0.000157194
0.00187981
8.15974e-05
0.00183421
4.56077e-05
0.0018064
2.78057e-05
0.00178843
1.79749e-05
0.00177626
1.21647e-05
0.0017678
8.46129e-06
0.00176191
5.89211e-06
0.00175792
3.98718e-06
0.00175541
2.5123e-06
0.00175407
1.33987e-06
0.00175367
3.93462e-07
0.00175402
-3.48754e-07
0.00175499
-9.66601e-07
0.00175643
-1.43737e-06
0.00175817
-1.74583e-06
0.00176009
-1.92075e-06
0.00176206
-1.96585e-06
0.00176393
-1.87256e-06
0.00176558
-1.65185e-06
0.0017669
-1.31148e-06
0.00176776
-8.60733e-07
0.00176807
-3.17034e-07
0.00176778
2.94177e-07
0.00176682
9.58504e-07
0.00176518
1.6405e-06
0.00176287
2.31089e-06
0.00175993
2.94315e-06
0.00175641
3.51367e-06
0.00175241
4.00229e-06
0.00174802
4.39006e-06
0.00174335
4.6682e-06
0.00173851
4.83767e-06
0.00173361
4.9017e-06
0.00172875
4.866e-06
0.00172401
4.74038e-06
0.00171946
4.54127e-06
0.00171518
4.28592e-06
0.00171119
3.98826e-06
0.00170753
3.66006e-06
0.00170422
3.31378e-06
0.00170125
2.96279e-06
0.00169864
2.61778e-06
0.00169635
2.28485e-06
0.00169438
1.96742e-06
0.00169272
1.66861e-06
0.00169132
1.39248e-06
0.00169018
1.14221e-06
0.00168926
9.18133e-07
0.00168854
7.18562e-07
0.001688
5.41105e-07
0.00168762
3.84336e-07
0.00168737
2.4845e-07
0.00168724
1.32749e-07
0.0016872
3.57934e-08
0.00168724
-4.3566e-08
0.00168736
-1.11931e-07
0.00168753
-1.6907e-07
0.00168774
-2.14331e-07
0.00168799
-2.49856e-07
0.00168827
-2.75965e-07
0.00168856
-2.94364e-07
0.00168887
-3.06615e-07
0.00168918
-3.13436e-07
0.0016895
-3.16206e-07
0.00168981
-3.16199e-07
0.00169013
-3.1321e-07
0.00169043
-3.06776e-07
0.00169073
-2.97839e-07
0.00169102
-2.86323e-07
0.00169129
-2.73596e-07
0.00169155
-2.59796e-07
0.0016918
-2.4533e-07
0.00169203
-2.30635e-07
0.00169224
-2.15314e-07
0.00169244
-1.99631e-07
0.00169262
-1.83257e-07
0.00169279
-1.66417e-07
0.00169294
-1.49099e-07
0.00169307
-1.31549e-07
0.00169318
-1.14082e-07
0.00169328
-9.68515e-08
0.00169336
-7.98016e-08
0.00169342
-6.16724e-08
0.00169347
-4.47409e-08
0.00169349
-1.95719e-08
5.14926e-09
0.00346836
0.000332124
0.00347513
0.000452152
0.00341439
0.000349391
0.00334382
0.000227765
0.00328365
0.000141775
0.00323869
9.0567e-05
0.00320603
6.0461e-05
0.0031822
4.18057e-05
0.00316471
2.96527e-05
0.00315185
2.13192e-05
0.00314245
1.52987e-05
0.00313568
1.07535e-05
0.00313099
7.20241e-06
0.00312796
4.36775e-06
0.00312628
2.07394e-06
0.00312572
2.14533e-07
0.00312604
-1.2879e-06
0.00312705
-2.4457e-06
0.00312856
-3.26074e-06
0.00313042
-3.77296e-06
0.00313244
-3.9869e-06
0.00313446
-3.89166e-06
0.00313631
-3.5074e-06
0.00313785
-2.85005e-06
0.00313893
-1.94228e-06
0.00313943
-8.1653e-07
0.00313925
4.73056e-07
0.00313832
1.88582e-06
0.00313661
3.35188e-06
0.00313411
4.81106e-06
0.00313086
6.19789e-06
0.00312692
7.45587e-06
0.00312238
8.54152e-06
0.00311735
9.41752e-06
0.00311196
1.00605e-05
0.00310633
1.0464e-05
0.0031006
1.06336e-05
0.00309488
1.05865e-05
0.00308927
1.0346e-05
0.00308387
9.9422e-06
0.00307875
9.40795e-06
0.00307396
8.77548e-06
0.00306955
8.07658e-06
0.00306552
7.33792e-06
0.0030619
6.58552e-06
0.00305868
5.8392e-06
0.00305585
5.11522e-06
0.00305339
4.42431e-06
0.00305129
3.7749e-06
0.0030495
3.17366e-06
0.00304802
2.6255e-06
0.00304681
2.1315e-06
0.00304584
1.68951e-06
0.00304508
1.29723e-06
0.00304451
9.5119e-07
0.00304411
6.501e-07
0.00304385
3.92354e-07
0.00304371
1.73896e-07
0.00304368
-1.02417e-08
0.00304373
-1.64766e-07
0.00304386
-2.93481e-07
0.00304404
-3.96768e-07
0.00304427
-4.77875e-07
0.00304453
-5.40433e-07
0.00304482
-5.86073e-07
0.00304514
-6.17842e-07
0.00304546
-6.38086e-07
0.00304579
-6.48829e-07
0.00304613
-6.51776e-07
0.00304646
-6.468e-07
0.00304679
-6.36131e-07
0.00304711
-6.19673e-07
0.00304742
-5.98482e-07
0.00304772
-5.73698e-07
0.00304801
-5.46334e-07
0.00304828
-5.17057e-07
0.00304854
-4.86602e-07
0.00304878
-4.54685e-07
0.003049
-4.21834e-07
0.0030492
-3.87747e-07
0.00304939
-3.52524e-07
0.00304956
-3.16475e-07
0.00304971
-2.80073e-07
0.00304984
-2.43739e-07
0.00304995
-2.07436e-07
0.00305004
-1.71202e-07
0.00305011
-1.33665e-07
0.00305016
-9.84078e-08
0.0030502
-5.42781e-08
-1.00195e-08
0.00345969
0.000205771
0.00355763
0.000354211
0.00358637
0.000320646
0.00357386
0.000240276
0.0035462
0.000169431
0.00351784
0.000118933
0.00349354
8.47629e-05
0.00347394
6.14057e-05
0.00345858
4.50051e-05
0.00344679
3.31118e-05
0.0034379
2.41859e-05
0.00343138
1.7278e-05
0.0034268
1.17872e-05
0.00342382
7.343e-06
0.00342218
3.71124e-06
0.00342166
7.37276e-07
0.00342206
-1.68298e-06
0.00342316
-3.55086e-06
0.00342483
-4.92811e-06
0.00342686
-5.80395e-06
0.00342908
-6.21215e-06
0.00343133
-6.14038e-06
0.00343343
-5.60461e-06
0.0034352
-4.6251e-06
0.0034365
-3.24216e-06
0.0034372
-1.50883e-06
0.00343717
4.98429e-07
0.00343634
2.71602e-06
0.00343467
5.02689e-06
0.00343215
7.33208e-06
0.00342881
9.53194e-06
0.00342473
1.15352e-05
0.00342001
1.32644e-05
0.00341477
1.46605e-05
0.00340914
1.56865e-05
0.00340327
1.63328e-05
0.0033973
1.66078e-05
0.00339134
1.65395e-05
0.00338553
1.6165e-05
0.00337994
1.55327e-05
0.00337465
1.46944e-05
0.00336972
1.37046e-05
0.00336518
1.26114e-05
0.00336106
1.14582e-05
0.00335737
1.02835e-05
0.00335409
9.11891e-06
0.00335121
7.9901e-06
0.00334872
6.91324e-06
0.00334659
5.90372e-06
0.0033448
4.9704e-06
0.0033433
4.11886e-06
0.00334209
3.34977e-06
0.00334111
2.66141e-06
0.00334036
2.05103e-06
0.0033398
1.5147e-06
0.0033394
1.04852e-06
0.00333914
6.47646e-07
0.00333901
3.06662e-07
0.00333898
1.84361e-08
0.00333904
-2.22918e-07
0.00333917
-4.21561e-07
0.00333935
-5.82588e-07
0.00333959
-7.10435e-07
0.00333986
-8.08584e-07
0.00334015
-8.81374e-07
0.00334047
-9.32789e-07
0.00334079
-9.66193e-07
0.00334113
-9.84908e-07
0.00334147
-9.89749e-07
0.0033418
-9.83443e-07
0.00334214
-9.67765e-07
0.00334246
-9.43427e-07
0.00334277
-9.1244e-07
0.00334308
-8.75822e-07
0.00334336
-8.35008e-07
0.00334364
-7.90889e-07
0.0033439
-7.44388e-07
0.00334414
-6.95785e-07
0.00334436
-6.45367e-07
0.00334456
-5.93154e-07
0.00334475
-5.3957e-07
0.00334492
-4.85128e-07
0.00334507
-4.30275e-07
0.0033452
-3.75173e-07
0.00334531
-3.19801e-07
0.00334541
-2.64428e-07
0.00334548
-2.08312e-07
0.00334554
-1.53721e-07
0.00334558
-9.51763e-08
-3.52819e-08
0.00340345
0.000135653
0.00348747
0.000270192
0.00353399
0.000274127
0.0035473
0.000226963
0.00354215
0.000174588
0.00352975
0.000131331
0.00351591
9.85977e-05
0.00350306
7.4261e-05
0.00349206
5.60036e-05
0.00348311
4.20581e-05
0.00347613
3.11668e-05
0.00347093
2.24786e-05
0.0034673
1.54154e-05
0.00346506
9.59007e-06
0.00346401
4.75562e-06
0.003464
7.4669e-07
0.00346486
-2.53875e-06
0.00346644
-5.13035e-06
0.00346854
-7.02945e-06
0.00347103
-8.29114e-06
0.00347371
-8.89249e-06
0.0034764
-8.83587e-06
0.00347893
-8.12949e-06
0.0034811
-6.80102e-06
0.00348276
-4.89581e-06
0.00348373
-2.48465e-06
0.00348391
3.24766e-07
0.00348319
3.4337e-06
0.00348153
6.68845e-06
0.00347892
9.94007e-06
0.00347541
1.3046e-05
0.00347107
1.58704e-05
0.00346604
1.83002e-05
0.00346044
2.02529e-05
0.00345445
2.16786e-05
0.00344822
2.25619e-05
0.00344191
2.292e-05
0.00343566
2.27937e-05
0.00342958
2.22403e-05
0.00342378
2.13303e-05
0.00341834
2.01409e-05
0.00341329
1.87467e-05
0.00340869
1.72167e-05
0.00340454
1.56124e-05
0.00340083
1.39852e-05
0.00339758
1.23779e-05
0.00339474
1.08243e-05
0.0033923
9.34942e-06
0.00339024
7.97091e-06
0.00338851
6.7001e-06
0.00338709
5.54193e-06
0.00338594
4.49755e-06
0.00338503
3.56495e-06
0.00338434
2.73988e-06
0.00338384
2.01719e-06
0.0033835
1.39021e-06
0.0033833
8.51413e-07
0.00338321
3.92225e-07
0.00338323
4.59148e-09
0.00338332
-3.1855e-07
0.00338348
-5.83856e-07
0.0033837
-7.97862e-07
0.00338396
-9.67984e-07
0.00338425
-1.09871e-06
0.00338456
-1.19613e-06
0.00338489
-1.26462e-06
0.00338524
-1.30877e-06
0.00338558
-1.3328e-06
0.00338593
-1.33816e-06
0.00338628
-1.32877e-06
0.00338662
-1.30656e-06
0.00338695
-1.27324e-06
0.00338726
-1.23136e-06
0.00338757
-1.18187e-06
0.00338786
-1.12686e-06
0.00338814
-1.06736e-06
0.0033884
-1.00447e-06
0.00338864
-9.38564e-07
0.00338887
-8.70055e-07
0.00338907
-7.99525e-07
0.00338926
-7.27575e-07
0.00338943
-6.54677e-07
0.00338958
-5.81044e-07
0.00338971
-5.06968e-07
0.00338982
-4.32608e-07
0.00338992
-3.58346e-07
0.00338999
-2.83814e-07
0.00339005
-2.10355e-07
0.00339009
-1.35553e-07
-5.82291e-08
0.00337175
9.72332e-05
0.00343074
0.000211209
0.00347414
0.000230723
0.0034964
0.000204706
0.00350341
0.000167575
0.00350188
0.000132863
0.00349643
0.00010405
0.00348969
8.09925e-05
0.00348308
6.26201e-05
0.00347726
4.78772e-05
0.00347253
3.58964e-05
0.00346899
2.6021e-05
0.00346662
1.7779e-05
0.00346538
1.08342e-05
0.00346517
4.96492e-06
0.0034659
2.02259e-08
0.00346746
-4.10413e-06
0.00346967
-7.33482e-06
0.00347245
-9.80881e-06
0.00347558
-1.14253e-05
0.00347892
-1.2229e-05
0.00348226
-1.21783e-05
0.00348541
-1.1277e-05
0.00348816
-9.55155e-06
0.00349031
-7.0493e-06
0.00349169
-3.86654e-06
0.00349215
-1.32109e-07
0.00349158
4.00299e-06
0.00348992
8.34804e-06
0.00348717
1.26926e-05
0.00348338
1.68369e-05
0.00347866
2.05925e-05
0.00347315
2.38059e-05
0.00346704
2.63644e-05
0.00346051
2.8205e-05
0.00345376
2.9311e-05
0.00344697
2.97118e-05
0.0034403
2.94697e-05
0.00343387
2.86671e-05
0.00342779
2.74071e-05
0.00342214
2.5793e-05
0.00341696
2.39264e-05
0.00341228
2.18994e-05
0.0034081
1.97913e-05
0.00340441
1.76689e-05
0.00340121
1.55859e-05
0.00339845
1.3584e-05
0.0033961
1.16935e-05
0.00339414
9.9347e-06
0.00339252
8.31966e-06
0.00339121
6.85316e-06
0.00339017
5.53538e-06
0.00338937
4.36278e-06
0.00338878
3.32916e-06
0.00338838
2.42623e-06
0.00338812
1.64561e-06
0.003388
9.76167e-07
0.00338798
4.07052e-07
0.00338806
-7.30849e-08
0.00338821
-4.70393e-07
0.00338842
-7.97272e-07
0.00338868
-1.057e-06
0.00338898
-1.26351e-06
0.0033893
-1.42225e-06
0.00338964
-1.53948e-06
0.00339
-1.62101e-06
0.00339036
-1.67216e-06
0.00339073
-1.69783e-06
0.00339109
-1.70138e-06
0.00339145
-1.6863e-06
0.0033918
-1.65595e-06
0.00339214
-1.61177e-06
0.00339246
-1.55723e-06
0.00339278
-1.49374e-06
0.00339307
-1.42353e-06
0.00339335
-1.34761e-06
0.00339362
-1.26738e-06
0.00339386
-1.18333e-06
0.00339409
-1.09652e-06
0.0033943
-1.00757e-06
0.00339448
-9.16987e-07
0.00339465
-8.25127e-07
0.00339481
-7.32328e-07
0.00339494
-6.39064e-07
0.00339505
-5.45714e-07
0.00339514
-4.52483e-07
0.00339522
-3.59151e-07
0.00339528
-2.66787e-07
0.00339531
-1.74223e-07
-7.80171e-08
0.00335614
7.44242e-05
0.00339719
0.000170158
0.00343307
0.000194845
0.00345648
0.000181295
0.00346877
0.000155289
0.00347344
0.000128192
0.00347363
0.000103854
0.00347155
8.30745e-05
0.00346858
6.55905e-05
0.00346557
5.08929e-05
0.00346299
3.84726e-05
0.00346112
2.7891e-05
0.00346009
1.88118e-05
0.00345994
1.09824e-05
0.00346068
4.22648e-06
0.0034623
-1.60232e-06
0.00346465
-6.45639e-06
0.00346769
-1.03733e-05
0.00347128
-1.34e-05
0.00347526
-1.54048e-05
0.00347945
-1.64165e-05
0.00348365
-1.63752e-05
0.00348762
-1.52486e-05
0.00349114
-1.30684e-05
0.00349397
-9.88232e-06
0.0034959
-5.80029e-06
0.00349675
-9.80754e-07
0.00349638
4.37057e-06
0.00349472
1.00082e-05
0.00349177
1.56468e-05
0.00348759
2.10139e-05
0.00348233
2.58534e-05
0.00347618
2.99604e-05
0.00346935
3.31875e-05
0.0034621
3.54579e-05
0.00345465
3.67596e-05
0.00344722
3.71418e-05
0.00344
3.66973e-05
0.00343311
3.55487e-05
0.00342668
3.38365e-05
0.00342078
3.16981e-05
0.00341544
2.92683e-05
0.00341067
2.66639e-05
0.00340648
2.39851e-05
0.00340283
2.13139e-05
0.00339971
1.87143e-05
0.00339706
1.62346e-05
0.00339484
1.39084e-05
0.00339302
1.1757e-05
0.00339155
9.79165e-06
0.00339038
8.01617e-06
0.00338949
6.42867e-06
0.00338883
5.02265e-06
0.00338837
3.78858e-06
0.00338808
2.71511e-06
0.00338794
1.78989e-06
0.00338791
9.9985e-07
0.00338799
3.31001e-07
0.00338815
-2.33601e-07
0.00338837
-6.93704e-07
0.00338865
-1.07051e-06
0.00338896
-1.37147e-06
0.00338931
-1.60763e-06
0.00338967
-1.78748e-06
0.00339005
-1.91869e-06
0.00339044
-2.0082e-06
0.00339083
-2.06176e-06
0.00339121
-2.08527e-06
0.0033916
-2.08345e-06
0.00339197
-2.05966e-06
0.00339233
-2.01794e-06
0.00339268
-1.96097e-06
0.00339301
-1.8919e-06
0.00339333
-1.81297e-06
0.00339364
-1.72604e-06
0.00339392
-1.6325e-06
0.00339419
-1.53388e-06
0.00339444
-1.43108e-06
0.00339466
-1.32536e-06
0.00339487
-1.21733e-06
0.00339506
-1.10736e-06
0.00339523
-9.96092e-07
0.00339539
-8.84006e-07
0.00339552
-7.71533e-07
0.00339563
-6.58946e-07
0.00339573
-5.46508e-07
0.0033958
-4.34011e-07
0.00339586
-3.22566e-07
0.00339589
-2.11391e-07
-9.53628e-08
0.0033481
5.96571e-05
0.00337748
0.000140778
0.00340614
0.00016618
0.00342766
0.000159783
0.00344149
0.000141461
0.00344925
0.000120432
0.00345288
0.000100223
0.003454
8.19542e-05
0.00345378
6.58036e-05
0.00345305
5.16257e-05
0.00345234
3.91883e-05
0.00345198
2.82432e-05
0.00345222
1.85757e-05
0.00345317
1.00285e-05
0.0034549
2.49743e-06
0.00345745
-4.14924e-06
0.00346074
-9.74424e-06
0.00346472
-1.43542e-05
0.00346929
-1.79675e-05
0.00347429
-2.04079e-05
0.00347955
-2.16709e-05
0.0034848
-2.1635e-05
0.00348984
-2.02814e-05
0.00349435
-1.75854e-05
0.00349808
-1.36085e-05
0.00350075
-8.46604e-06
0.00350212
-2.35016e-06
0.00350202
4.46183e-06
0.00350036
1.16723e-05
0.00349713
1.88758e-05
0.00349243
2.57142e-05
0.00348644
3.18427e-05
0.00347942
3.69872e-05
0.00347164
4.09595e-05
0.00346343
4.36695e-05
0.00345507
4.51186e-05
0.00344683
4.53896e-05
0.0034389
4.46223e-05
0.00343146
4.29921e-05
0.0034246
4.06896e-05
0.00341841
3.78958e-05
0.00341289
3.47855e-05
0.00340805
3.15038e-05
0.00340386
2.81726e-05
0.00340029
2.48886e-05
0.00339728
2.17252e-05
0.00339478
1.87344e-05
0.00339273
1.59506e-05
0.0033911
1.33945e-05
0.00338981
1.1075e-05
0.00338884
8.9926e-06
0.00338813
7.14136e-06
0.00338764
5.51086e-06
0.00338734
4.08777e-06
0.0033872
2.85652e-06
0.00338719
1.80005e-06
0.00338728
9.01914e-07
0.00338747
1.45984e-07
0.00338773
-4.91412e-07
0.00338803
-1.00193e-06
0.00338838
-1.41991e-06
0.00338876
-1.75092e-06
0.00338916
-2.00865e-06
0.00338958
-2.20162e-06
0.00339
-2.3396e-06
0.00339042
-2.43131e-06
0.00339084
-2.48132e-06
0.00339125
-2.49839e-06
0.00339166
-2.4868e-06
0.00339205
-2.45096e-06
0.00339243
-2.39507e-06
0.00339279
-2.3228e-06
0.00339313
-2.23703e-06
0.00339346
-2.14035e-06
0.00339377
-2.03476e-06
0.00339406
-1.92224e-06
0.00339433
-1.80429e-06
0.00339458
-1.68215e-06
0.00339481
-1.55674e-06
0.00339502
-1.42877e-06
0.00339521
-1.29895e-06
0.00339539
-1.16787e-06
0.00339554
-1.03617e-06
0.00339567
-9.04171e-07
0.00339578
-7.72041e-07
0.00339588
-6.40103e-07
0.00339595
-5.08333e-07
0.00339601
-3.77712e-07
0.00339604
-2.47391e-07
-1.10969e-07
0.00334357
4.94168e-05
0.00336526
0.000119094
0.00338802
0.000143423
0.00340673
0.000141068
0.00342026
0.000127929
0.00342921
0.000111484
0.0034347
9.47319e-05
0.00343785
7.88073e-05
0.00343956
6.40898e-05
0.00344054
5.06449e-05
0.00344132
3.84158e-05
0.00344226
2.73035e-05
0.00344363
1.72061e-05
0.00344561
8.04666e-06
0.00344833
-2.217e-07
0.00345179
-7.6092e-06
0.00345609
-1.40499e-05
0.00346114
-1.93971e-05
0.00346682
-2.36546e-05
0.00347305
-2.66315e-05
0.00347957
-2.81959e-05
0.00348617
-2.82355e-05
0.00349253
-2.66431e-05
0.00349833
-2.33843e-05
0.00350322
-1.84937e-05
0.00350685
-1.20948e-05
0.00350891
-4.41653e-06
0.00350918
4.20101e-06
0.00350751
1.33335e-05
0.00350392
2.24738e-05
0.00349851
3.11228e-05
0.00349154
3.88095e-05
0.00348335
4.51763e-05
0.00347433
4.99817e-05
0.00346487
5.31273e-05
0.00345535
5.46422e-05
0.00344607
5.46647e-05
0.00343729
5.34037e-05
0.00342918
5.11062e-05
0.00342184
4.80289e-05
0.00341532
4.44132e-05
0.00340963
4.04755e-05
0.00340474
3.63949e-05
0.0034006
3.23154e-05
0.00339714
2.83462e-05
0.0033943
2.45665e-05
0.003392
2.10294e-05
0.00339019
1.77674e-05
0.00338878
1.47971e-05
0.00338774
1.21225e-05
0.00338699
9.73879e-06
0.0033865
7.63457e-06
0.00338622
5.79346e-06
0.00338611
4.19628e-06
0.00338614
2.82269e-06
0.00338629
1.65132e-06
0.00338653
6.61596e-07
0.00338684
-1.68125e-07
0.00338721
-8.55448e-07
0.00338762
-1.41007e-06
0.00338805
-1.85606e-06
0.00338851
-2.20449e-06
0.00338897
-2.47365e-06
0.00338944
-2.67151e-06
0.00338991
-2.80879e-06
0.00339037
-2.89424e-06
0.00339083
-2.93579e-06
0.00339127
-2.94031e-06
0.0033917
-2.91391e-06
0.00339211
-2.86191e-06
0.0033925
-2.78863e-06
0.00339288
-2.69806e-06
0.00339323
-2.59308e-06
0.00339357
-2.47651e-06
0.00339388
-2.35067e-06
0.00339418
-2.21781e-06
0.00339445
-2.07922e-06
0.00339471
-1.93643e-06
0.00339494
-1.79034e-06
0.00339516
-1.64187e-06
0.00339535
-1.49178e-06
0.00339552
-1.34057e-06
0.00339567
-1.18881e-06
0.00339581
-1.03682e-06
0.00339592
-8.84907e-07
0.00339601
-7.33378e-07
0.00339609
-5.82196e-07
0.00339614
-4.32159e-07
0.00339617
-2.8236e-07
-1.25253e-07
0.00334076
4.19904e-05
0.00335719
0.000102663
0.00337531
0.000125301
0.00339118
0.000125202
0.00340358
0.000115527
0.00341262
0.000102442
0.00341891
8.84415e-05
0.00342318
7.45376e-05
0.00342612
6.1156e-05
0.00342829
4.84713e-05
0.00343017
3.65367e-05
0.00343212
2.53511e-05
0.00343443
1.48956e-05
0.00343732
5.16025e-06
0.00344095
-3.8474e-06
0.00344539
-1.20496e-05
0.00345069
-1.935e-05
0.00345689
-2.55959e-05
0.00346386
-3.06323e-05
0.00347149
-3.42567e-05
0.00347956
-3.62676e-05
0.00348778
-3.6454e-05
0.0034958
-3.46686e-05
0.00350323
-3.08117e-05
0.00350961
-2.48769e-05
0.00351451
-1.69857e-05
0.00351749
-7.40288e-06
0.00351825
3.44483e-06
0.00351658
1.49978e-05
0.00351248
2.65748e-05
0.00350612
3.74837e-05
0.00349784
4.7092e-05
0.00348811
5.49109e-05
0.00347744
6.06448e-05
0.00346638
6.41946e-05
0.00345538
6.56416e-05
0.00344483
6.521e-05
0.00343502
6.32139e-05
0.00342613
5.99953e-05
0.00341826
5.59047e-05
0.00341141
5.12548e-05
0.00340558
4.6312e-05
0.00340068
4.12899e-05
0.00339665
3.63524e-05
0.00339337
3.16185e-05
0.00339077
2.71684e-05
0.00338875
2.30517e-05
0.00338722
1.92944e-05
0.00338611
1.59054e-05
0.00338536
1.28809e-05
0.00338489
1.02078e-05
0.00338466
7.86642e-06
0.00338462
5.83299e-06
0.00338473
4.08199e-06
0.00338497
2.58677e-06
0.0033853
1.32096e-06
0.0033857
2.58406e-07
0.00338616
-6.24519e-07
0.00338665
-1.3486e-06
0.00338717
-1.92779e-06
0.0033877
-2.38482e-06
0.00338823
-2.74285e-06
0.00338877
-3.01023e-06
0.0033893
-3.20209e-06
0.00338982
-3.33016e-06
0.00339033
-3.40098e-06
0.00339082
-3.42673e-06
0.00339129
-3.41336e-06
0.00339175
-3.36756e-06
0.00339218
-3.29494e-06
0.00339259
-3.20034e-06
0.00339298
-3.08761e-06
0.00339335
-2.9605e-06
0.00339369
-2.82176e-06
0.00339402
-2.67396e-06
0.00339432
-2.51898e-06
0.0033946
-2.35842e-06
0.00339485
-2.19386e-06
0.00339509
-2.02625e-06
0.00339531
-1.85669e-06
0.0033955
-1.68572e-06
0.00339567
-1.51387e-06
0.00339582
-1.34162e-06
0.00339596
-1.16944e-06
0.00339607
-9.97625e-07
0.00339616
-8.26388e-07
0.00339624
-6.5556e-07
0.00339629
-4.85811e-07
0.00339632
-3.16325e-07
-1.38477e-07
0.00333884
3.64803e-05
0.00335151
8.99926e-05
0.00336601
0.000110806
0.00337928
0.00011193
0.00339023
0.000104576
0.00339874
9.393e-05
0.00340513
8.20515e-05
0.00340988
6.97963e-05
0.00341346
5.7567e-05
0.00341636
4.5574e-05
0.00341897
3.39257e-05
0.00342165
2.26764e-05
0.00342468
1.18626e-05
0.00342831
1.5271e-06
0.00343274
-8.27205e-06
0.00343809
-1.74009e-05
0.00344445
-2.57082e-05
0.00345185
-3.30013e-05
0.00346026
-3.90396e-05
0.00346951
-4.35084e-05
0.00347939
-4.61483e-05
0.00348959
-4.66528e-05
0.00349969
-4.47667e-05
0.00350919
-4.03063e-05
0.00351751
-3.32021e-05
0.00352407
-2.35456e-05
0.0035283
-1.16298e-05
0.00352972
2.01851e-06
0.00352807
1.66556e-05
0.00352329
3.13559e-05
0.00351562
4.51459e-05
0.00350557
5.71466e-05
0.00349377
6.67073e-05
0.00348096
7.3462e-05
0.00346781
7.73363e-05
0.00345496
7.84973e-05
0.00344286
7.7309e-05
0.00343184
7.42286e-05
0.00342209
6.97531e-05
0.00341365
6.43391e-05
0.00340651
5.83933e-05
0.00340059
5.2234e-05
0.00339577
4.61078e-05
0.00339193
4.01936e-05
0.00338894
3.46129e-05
0.00338667
2.94407e-05
0.003385
2.47167e-05
0.00338384
2.04552e-05
0.00338309
1.66518e-05
0.00338269
1.32906e-05
0.00338255
1.03468e-05
0.00338262
7.79114e-06
0.00338286
5.59097e-06
0.00338323
3.71217e-06
0.0033837
2.12098e-06
0.00338423
7.85808e-07
0.00338482
-3.30298e-07
0.00338544
-1.2389e-06
0.00338606
-1.97543e-06
0.0033867
-2.56347e-06
0.00338734
-3.02077e-06
0.00338796
-3.36982e-06
0.00338858
-3.62453e-06
0.00338917
-3.79918e-06
0.00338975
-3.90603e-06
0.0033903
-3.95513e-06
0.00339083
-3.95711e-06
0.00339134
-3.91874e-06
0.00339182
-3.84786e-06
0.00339227
-3.74986e-06
0.0033927
-3.62977e-06
0.00339311
-3.49187e-06
0.00339349
-3.33977e-06
0.00339384
-3.17644e-06
0.00339417
-3.00434e-06
0.00339448
-2.8255e-06
0.00339476
-2.64165e-06
0.00339502
-2.45426e-06
0.00339526
-2.26442e-06
0.00339548
-2.07296e-06
0.00339567
-1.88038e-06
0.00339584
-1.68736e-06
0.003396
-1.49441e-06
0.00339613
-1.30193e-06
0.00339624
-1.11006e-06
0.00339633
-9.18914e-07
0.00339641
-7.28219e-07
0.00339646
-5.38591e-07
0.00339649
-3.49385e-07
-1.50879e-07
0.00333743
3.23809e-05
0.0033473
8.01293e-05
0.00335891
9.91965e-05
0.00336988
0.000100952
0.00337929
9.51646e-05
0.00338695
8.62795e-05
0.00339299
7.60096e-05
0.00339772
6.50594e-05
0.00340152
5.37758e-05
0.00340473
4.23586e-05
0.00340773
3.09305e-05
0.00341083
1.95722e-05
0.00341434
8.35085e-06
0.00341853
-2.65895e-06
0.00342361
-1.33503e-05
0.00342979
-2.35852e-05
0.00343718
-3.30982e-05
0.00344586
-4.16811e-05
0.0034558
-4.89805e-05
0.00346691
-5.46128e-05
0.00347893
-5.81747e-05
0.00349153
-5.92482e-05
0.0035042
-5.74376e-05
0.00351633
-5.24352e-05
0.00352719
-4.40604e-05
0.00353597
-3.23339e-05
0.0035419
-1.75514e-05
0.00354426
-3.47397e-07
0.00354263
1.82869e-05
0.00353692
3.70667e-05
0.00352748
5.45903e-05
0.00351501
6.96146e-05
0.00350044
8.1274e-05
0.00348479
8.91165e-05
0.00346897
9.31507e-05
0.0034538
9.36742e-05
0.00343983
9.12756e-05
0.00342742
8.66336e-05
0.00341674
8.04403e-05
0.00340777
7.33101e-05
0.00340041
6.57498e-05
0.00339451
5.81314e-05
0.0033899
5.07245e-05
0.00338638
4.37119e-05
0.00338378
3.72071e-05
0.00338195
3.12707e-05
0.00338075
2.59238e-05
0.00338004
2.11603e-05
0.00337973
1.69578e-05
0.00337974
1.32839e-05
0.00337999
1.00996e-05
0.00338042
7.36238e-06
0.00338098
5.0285e-06
0.00338164
3.05467e-06
0.00338236
1.39923e-06
0.00338312
2.15145e-08
0.0033839
-1.11008e-06
0.00338469
-2.02467e-06
0.00338547
-2.75581e-06
0.00338624
-3.33033e-06
0.00338698
-3.76765e-06
0.00338771
-4.09185e-06
0.0033884
-4.3186e-06
0.00338906
-4.46336e-06
0.0033897
-4.53953e-06
0.0033903
-4.5573e-06
0.00339087
-4.52732e-06
0.00339141
-4.45772e-06
0.00339192
-4.35524e-06
0.00339239
-4.22678e-06
0.00339284
-4.07707e-06
0.00339326
-3.91045e-06
0.00339365
-3.73036e-06
0.00339401
-3.53982e-06
0.00339435
-3.34132e-06
0.00339466
-3.13704e-06
0.00339495
-2.92861e-06
0.00339521
-2.71736e-06
0.00339545
-2.5043e-06
0.00339567
-2.29004e-06
0.00339586
-2.0754e-06
0.00339604
-1.86089e-06
0.00339619
-1.64701e-06
0.00339632
-1.434e-06
0.00339643
-1.22186e-06
0.00339652
-1.01059e-06
0.0033966
-7.99989e-07
0.00339665
-5.9053e-07
0.00339668
-3.81727e-07
-1.62686e-07
0.00333632
2.93902e-05
0.00334399
7.24651e-05
0.00335324
8.99397e-05
0.00336221
9.19881e-05
0.00337011
8.72677e-05
0.00337672
7.9661e-05
0.00338213
7.06086e-05
0.00338651
6.0677e-05
0.00339014
5.01429e-05
0.00339333
3.91728e-05
0.00339638
2.78773e-05
0.00339962
1.63374e-05
0.00340334
4.62729e-06
0.00340785
-7.16666e-06
0.00341341
-1.89161e-05
0.00342026
-3.04376e-05
0.00342862
-4.14576e-05
0.00343859
-5.16513e-05
0.00345021
-6.05983e-05
0.0034634
-6.77995e-05
0.00347793
-7.27046e-05
0.00349341
-7.47289e-05
0.00350927
-7.33037e-05
0.00352477
-6.79296e-05
0.00353896
-5.82481e-05
0.00355076
-4.41373e-05
0.00355904
-2.58344e-05
0.00356277
-4.07228e-06
0.00356122
1.98373e-05
0.00355422
4.40646e-05
0.00354229
6.65201e-05
0.0035265
8.54104e-05
0.00350818
9.95892e-05
0.00348876
0.000108532
0.00346952
0.000112398
0.00345145
0.00011174
0.00343526
0.000107462
0.00342131
0.000100583
0.00340969
9.2063e-05
0.00340028
8.2724e-05
0.00339286
7.3172e-05
0.00338716
6.38259e-05
0.00338293
5.49586e-05
0.0033799
4.67363e-05
0.00337786
3.92462e-05
0.00337662
3.25202e-05
0.00337599
2.65513e-05
0.00337584
2.13064e-05
0.00337606
1.67377e-05
0.00337656
1.27904e-05
0.00337725
9.40726e-06
0.00337808
6.53104e-06
0.003379
4.10597e-06
0.00337998
2.07817e-06
0.00338098
3.97497e-07
0.00338199
-9.905e-07
0.00338298
-2.10251e-06
0.00338395
-2.99389e-06
0.00338489
-3.69403e-06
0.00338579
-4.23142e-06
0.00338666
-4.62994e-06
0.00338748
-4.91216e-06
0.00338825
-5.09575e-06
0.00338899
-5.19753e-06
0.00338968
-5.23076e-06
0.00339033
-5.2074e-06
0.00339094
-5.13745e-06
0.00339151
-5.02884e-06
0.00339204
-4.88957e-06
0.00339254
-4.72543e-06
0.00339301
-4.54174e-06
0.00339344
-4.34247e-06
0.00339384
-4.1313e-06
0.00339421
-3.91106e-06
0.00339455
-3.68432e-06
0.00339487
-3.45298e-06
0.00339516
-3.21857e-06
0.00339542
-2.98228e-06
0.00339566
-2.74497e-06
0.00339588
-2.50746e-06
0.00339608
-2.27034e-06
0.00339625
-2.0341e-06
0.0033964
-1.79904e-06
0.00339653
-1.56527e-06
0.00339664
-1.33266e-06
0.00339673
-1.10126e-06
0.00339681
-8.70856e-07
0.00339686
-6.41752e-07
0.00339689
-4.13481e-07
-1.74085e-07
0.0033354
2.73205e-05
0.00334127
6.65963e-05
0.00334856
8.26495e-05
0.00335575
8.47973e-05
0.0033622
8.08235e-05
0.00336769
7.41641e-05
0.00337226
6.60432e-05
0.00337603
5.69076e-05
0.00337921
4.69618e-05
0.00338206
3.63256e-05
0.00338486
2.50785e-05
0.00338791
1.32798e-05
0.00339155
9.9028e-07
0.00339611
-1.17224e-05
0.00340191
-2.47199e-05
0.00340927
-3.77949e-05
0.00341846
-5.06504e-05
0.00342969
-6.28821e-05
0.00344307
-7.39753e-05
0.00345857
-8.32989e-05
0.00347599
-9.01276e-05
0.00349493
-9.36739e-05
0.00351476
-9.31288e-05
0.00353456
-8.7732e-05
0.00355316
-7.6845e-05
0.0035691
-6.00785e-05
0.00358075
-3.74841e-05
0.00358651
-9.82733e-06
0.00358517
2.11715e-05
0.00357634
5.28909e-05
0.00356088
8.19883e-05
0.00354043
0.000105857
0.00351701
0.000123008
0.00349259
0.000132954
0.0034689
0.000136087
0.00344727
0.000133372
0.00342851
0.000126225
0.00341293
0.000116162
0.00340046
0.000104527
0.00339081
9.23735e-05
0.00338358
8.04043e-05
0.00337835
6.90541e-05
0.00337475
5.85611e-05
0.00337245
4.90417e-05
0.00337116
4.05337e-05
0.00337066
3.30236e-05
0.00337074
2.64627e-05
0.00337127
2.078e-05
0.00337211
1.58967e-05
0.00337317
1.17325e-05
0.00337437
8.20882e-06
0.00337565
5.25052e-06
0.00337697
2.78732e-06
0.00337829
7.53761e-07
0.0033796
-9.11297e-07
0.00338086
-2.25421e-06
0.00338208
-3.32142e-06
0.00338324
-4.15513e-06
0.00338435
-4.79996e-06
0.00338539
-5.27164e-06
0.00338637
-5.6093e-06
0.00338729
-5.83227e-06
0.00338815
-5.95504e-06
0.00338895
-6.00025e-06
0.0033897
-5.97927e-06
0.0033904
-5.90433e-06
0.00339104
-5.78539e-06
0.00339165
-5.6313e-06
0.00339221
-5.44872e-06
0.00339272
-5.244e-06
0.0033932
-5.02182e-06
0.00339365
-4.78647e-06
0.00339406
-4.54135e-06
0.00339444
-4.28918e-06
0.00339478
-4.03221e-06
0.0033951
-3.77217e-06
0.0033954
-3.51038e-06
0.00339566
-3.24794e-06
0.0033959
-2.98575e-06
0.00339612
-2.72447e-06
0.00339631
-2.46456e-06
0.00339649
-2.20634e-06
0.00339664
-1.94989e-06
0.00339677
-1.69522e-06
0.00339688
-1.44222e-06
0.00339697
-1.19085e-06
0.00339704
-9.40836e-07
0.00339709
-6.92273e-07
0.00339712
-4.44727e-07
-1.85181e-07
0.00333461
2.60458e-05
0.00333896
6.22393e-05
0.00334457
7.70437e-05
0.00335018
7.91909e-05
0.00335524
7.5762e-05
0.00335957
6.9831e-05
0.00336317
6.24457e-05
0.00336613
5.39514e-05
0.00336861
4.44815e-05
0.00337083
3.41002e-05
0.00337307
2.284e-05
0.00337563
1.07195e-05
0.00337884
-2.22432e-06
0.00338312
-1.5998e-05
0.00338885
-3.04515e-05
0.00339644
-4.53826e-05
0.00340626
-6.04755e-05
0.00341865
-7.52672e-05
0.00343381
-8.91393e-05
0.00345183
-0.000101312
0.00347255
-0.000110854
0.00349561
-0.000116733
0.00352031
-0.000117831
0.00354563
-0.000113043
0.00357009
-0.000101314
0.0035918
-8.17853e-05
0.00360838
-5.40585e-05
0.00361726
-1.87084e-05
0.00361637
2.20573e-05
0.00360498
6.42828e-05
0.00358434
0.000102627
0.00355728
0.000132917
0.00352682
0.000153465
0.00349571
0.000164072
0.00346627
0.000165525
0.00344028
0.000159357
0.00341864
0.000147862
0.0034015
0.000133308
0.00338847
0.000117556
0.00337896
0.000101886
0.00337231
8.70537e-05
0.00336792
7.34426e-05
0.00336528
6.12014e-05
0.00336397
5.03494e-05
0.00336367
4.08388e-05
0.0033641
3.25898e-05
0.00336506
2.55009e-05
0.00336638
1.94568e-05
0.00336794
1.43393e-05
0.00336964
1.00368e-05
0.0033714
6.44644e-06
0.00337318
3.47447e-06
0.00337493
1.03679e-06
0.00337663
-9.47433e-07
0.00337825
-2.53498e-06
0.00337979
-3.79146e-06
0.00338123
-4.76808e-06
0.0033826
-5.51936e-06
0.00338387
-6.06618e-06
0.00338505
-6.45327e-06
0.00338615
-6.70798e-06
0.00338716
-6.84662e-06
0.0033881
-6.89531e-06
0.00338897
-6.8694e-06
0.00338977
-6.78213e-06
0.00339051
-6.64533e-06
0.0033912
-6.4694e-06
0.00339183
-6.26208e-06
0.00339241
-6.03036e-06
0.00339295
-5.7798e-06
0.00339344
-5.51521e-06
0.00339389
-5.2404e-06
0.00339431
-4.95895e-06
0.00339469
-4.67227e-06
0.00339504
-4.38328e-06
0.00339536
-4.09297e-06
0.00339566
-3.80269e-06
0.00339592
-3.51338e-06
0.00339616
-3.22575e-06
0.00339638
-2.94025e-06
0.00339657
-2.65725e-06
0.00339674
-2.37678e-06
0.00339689
-2.09888e-06
0.00339702
-1.82342e-06
0.00339713
-1.55024e-06
0.00339722
-1.27912e-06