/*--------------------------------*- C++ -*----------------------------------*\
| =========                 |                                                 |
| \\      /  F ield         | OpenFOAM: The Open Source CFD Toolbox           |
|  \\    /   O peration     | Version:  v1806                                 |
|   \\  /    A nd           | Web:      www.OpenFOAM.com                      |
|    \\/     M anipulation  |                                                 |
\*---------------------------------------------------------------------------*/
FoamFile
{
    version     2.0;
    format      ascii;
    class       volVectorField;
    location    "0.05";
    object      U;
}
// * * * * * * * * * * * * * * * * * * * * * * * * * * * * * * * * * * * * * //

dimensions      [0 1 -1 0 0 0 0];


internalField   nonuniform List<vector> 
5400
(
(0.835833 0.0938185 0)
(0.79125 0.0912482 0)
(0.684988 0.0537191 0)
(0.607197 0.0268497 0)
(0.57256 0.0128733 0)
(0.556016 0.00670698 0)
(0.545696 0.00387842 0)
(0.538942 0.00240408 0)
(0.534513 0.0015749 0)
(0.531488 0.00106737 0)
(0.529373 0.000722566 0)
(0.527913 0.000468204 0)
(0.526952 0.000271277 0)
(0.526384 0.000114001 0)
(0.526132 -1.43567e-05 -4.18811e-36)
(0.52613 -0.000118541 4.18811e-36)
(0.526332 -0.000197027 0)
(0.526697 -0.000253329 0)
(0.527176 -0.000290016 0)
(0.52773 -0.000308692 0)
(0.528316 -0.000308365 0)
(0.528893 -0.000288076 0)
(0.529426 -0.000249979 0)
(0.529873 -0.000195111 0)
(0.5302 -0.000123639 0)
(0.530379 -3.90763e-05 0)
(0.530385 5.44091e-05 0)
(0.530197 0.000154262 0)
(0.529808 0.000257054 0)
(0.529218 0.000357036 0)
(0.52843 0.0004498 0)
(0.527459 0.000533284 0)
(0.526332 0.000604655 0)
(0.525073 0.000660409 0)
(0.523713 0.000699018 0)
(0.522284 0.000721419 0)
(0.520822 0.00072878 0)
(0.519356 0.000721484 0)
(0.517914 0.000700644 0)
(0.516519 0.000668959 0)
(0.515193 0.000629472 0)
(0.513952 0.000584304 0)
(0.512805 0.000534841 0)
(0.511758 0.000482701 0)
(0.510815 0.00042999 0)
(0.509978 0.000378518 0)
(0.509243 0.000329249 0)
(0.508606 0.000282462 0)
(0.508061 0.000238391 0)
(0.507601 0.000197612 0)
(0.50722 0.000160764 0)
(0.506912 0.000128025 0)
(0.506667 9.9071e-05 0)
(0.506479 7.33447e-05 0)
(0.506341 5.05094e-05 0)
(0.506245 3.06721e-05 0)
(0.506188 1.38521e-05 0)
(0.506163 -2.06173e-07 0)
(0.506165 -1.19574e-05 0)
(0.506189 -2.15056e-05 0)
(0.506232 -2.92798e-05 0)
(0.506289 -3.55664e-05 0)
(0.506358 -4.03903e-05 0)
(0.506437 -4.39155e-05 0)
(0.506523 -4.62508e-05 0)
(0.506613 -4.76063e-05 0)
(0.506707 -4.8279e-05 0)
(0.506801 -4.84904e-05 0)
(0.506896 -4.83075e-05 0)
(0.506991 -4.76919e-05 0)
(0.507083 -4.66553e-05 0)
(0.507174 -4.51411e-05 0)
(0.507262 -4.33018e-05 0)
(0.507346 -4.12352e-05 0)
(0.507426 -3.90527e-05 0)
(0.507502 -3.68175e-05 0)
(0.507573 -3.45489e-05 0)
(0.50764 -3.22512e-05 0)
(0.507702 -2.98822e-05 0)
(0.50776 -2.7428e-05 0)
(0.507812 -2.48736e-05 0)
(0.507859 -2.22364e-05 0)
(0.507901 -1.95585e-05 0)
(0.507938 -1.68963e-05 0)
(0.50797 -1.42863e-05 0)
(0.507997 -1.17066e-05 0)
(0.508018 -8.92865e-06 0)
(0.508034 -6.18934e-06 0)
(0.508047 -1.4864e-06 0)
(0.508041 2.73055e-06 0)
(0.980512 0.141667 0)
(1.05034 0.161618 0)
(1.04994 0.111695 0)
(1.01411 0.065624 0)
(0.991286 0.0368567 0)
(0.977626 0.0216845 0)
(0.966514 0.0136454 0)
(0.957935 0.00903587 0)
(0.951774 0.00621745 0)
(0.947303 0.00437588 0)
(0.944012 0.00308449 0)
(0.941618 0.00212446 0)
(0.939922 0.00138104 0)
(0.938779 0.000790648 0)
(0.938086 0.000312947 0)
(0.937757 -7.24578e-05 0)
(0.937728 -0.000374949 0)
(0.937936 -0.000605442 0)
(0.938318 -0.000769523 0)
(0.938828 -0.00086642 0)
(0.939414 -0.000899379 0)
(0.940023 -0.000867852 0)
(0.940609 -0.000773032 0)
(0.941123 -0.000620651 0)
(0.941518 -0.000415405 0)
(0.941759 -0.000163678 0)
(0.941812 0.000123298 0)
(0.941648 0.000433134 0)
(0.941253 0.000753717 0)
(0.940624 0.00107133 0)
(0.939762 0.0013721 0)
(0.938681 0.00164425 0)
(0.937408 0.00187771 0)
(0.935973 0.00206454 0)
(0.934407 0.00220025 0)
(0.932751 0.00228412 0)
(0.931045 0.00231769 0)
(0.929326 0.00230388 0)
(0.927625 0.00224777 0)
(0.925971 0.00215661 0)
(0.92439 0.0020381 0)
(0.922903 0.00189901 0)
(0.921522 0.00174519 0)
(0.920254 0.0015827 0)
(0.919106 0.00141766 0)
(0.918078 0.00125496 0)
(0.917172 0.00109759 0)
(0.91638 0.00094729 0)
(0.915695 0.00080576 0)
(0.915111 0.00067486 0)
(0.914621 0.000555961 0)
(0.914217 0.000449197 0)
(0.913891 0.000353883 0)
(0.913633 0.000269135 0)
(0.913435 0.000194318 0)
(0.913289 0.000129268 0)
(0.913189 7.36951e-05 0)
(0.913131 2.67758e-05 0)
(0.913106 -1.24751e-05 0)
(0.91311 -4.50397e-05 0)
(0.913137 -7.19406e-05 0)
(0.913183 -9.39981e-05 0)
(0.913244 -0.000111444 0)
(0.913318 -0.000124474 0)
(0.913401 -0.000133722 0)
(0.913493 -0.000139926 0)
(0.913589 -0.00014374 0)
(0.913688 -0.000145646 0)
(0.913788 -0.000145879 0)
(0.913888 -0.000144656 0)
(0.913987 -0.000142024 0)
(0.914085 -0.000138057 0)
(0.91418 -0.000133057 0)
(0.914272 -0.000127289 0)
(0.914361 -0.000121018 0)
(0.914445 -0.000114427 0)
(0.914524 -0.000107585 0)
(0.914598 -0.000100546 0)
(0.914667 -9.32548e-05 0)
(0.91473 -8.56845e-05 0)
(0.914789 -7.78363e-05 0)
(0.914842 -6.97815e-05 0)
(0.91489 -6.16493e-05 0)
(0.914932 -5.35541e-05 0)
(0.914968 -4.55271e-05 0)
(0.914998 -3.75436e-05 0)
(0.915023 -2.91272e-05 0)
(0.915043 -2.13761e-05 0)
(0.915053 -1.03759e-05 0)
(0.915061 7.96933e-07 0)
(0.983969 0.0772218 0)
(1.05852 0.11955 0)
(1.08826 0.101358 0)
(1.07583 0.0717416 0)
(1.06609 0.0480511 0)
(1.05946 0.0324024 0)
(1.05184 0.0224038 0)
(1.04497 0.0158592 0)
(1.03969 0.0114277 0)
(1.03566 0.00830476 0)
(1.03259 0.00601016 0)
(1.0303 0.004261 0)
(1.02865 0.00288554 0)
(1.02753 0.00178264 0)
(1.02685 0.000887081 0)
(1.02653 0.00015877 0)
(1.02652 -0.000424557 0)
(1.02675 -0.000879617 0)
(1.02717 -0.00121186 0)
(1.02773 -0.00142334 0)
(1.02837 -0.00151547 0)
(1.02905 -0.00149214 0)
(1.02971 -0.00135503 0)
(1.03029 -0.00111024 0)
(1.03076 -0.000767486 0)
(1.03106 -0.000339538 0)
(1.03117 0.000155672 0)
(1.03104 0.000696355 0)
(1.03066 0.00126014 0)
(1.03004 0.00182278 0)
(1.02916 0.00235911 0)
(1.02805 0.00284619 0)
(1.02673 0.00326586 0)
(1.02523 0.00360489 0)
(1.0236 0.00385473 0)
(1.02187 0.00401166 0)
(1.02009 0.00407778 0)
(1.0183 0.0040599 0)
(1.01653 0.00396792 0)
(1.01482 0.00381338 0)
(1.01318 0.00360854 0)
(1.01165 0.0033658 0)
(1.01023 0.00309725 0)
(1.00893 0.00281425 0)
(1.00776 0.00252635 0)
(1.00671 0.00224098 0)
(1.00579 0.00196365 0)
(1.00498 0.00169884 0)
(1.00429 0.0014503 0)
(1.0037 0.00122073 0)
(1.00321 0.00101139 0)
(1.0028 0.000822357 0)
(1.00247 0.000652983 0)
(1.00222 0.000502495 0)
(1.00202 0.000370176 0)
(1.00187 0.000255169 0)
(1.00178 0.000156523 0)
(1.00172 7.27384e-05 0)
(1.0017 2.20465e-06 0)
(1.0017 -5.68884e-05 0)
(1.00173 -0.000105901 0)
(1.00178 -0.000145825 0)
(1.00184 -0.000177527 0)
(1.00191 -0.000201727 0)
(1.002 -0.00021954 0)
(1.00209 -0.000232103 0)
(1.00219 -0.00024029 0)
(1.00229 -0.000244719 0)
(1.00239 -0.00024589 0)
(1.00249 -0.000244325 0)
(1.00259 -0.000240329 0)
(1.00269 -0.000234251 0)
(1.00278 -0.00022643 0)
(1.00288 -0.000217239 0)
(1.00297 -0.000207032 0)
(1.00305 -0.000196073 0)
(1.00313 -0.000184533 0)
(1.0032 -0.000172512 0)
(1.00327 -0.000160021 0)
(1.00334 -0.000147068 0)
(1.0034 -0.000133732 0)
(1.00345 -0.000120152 0)
(1.0035 -0.000106472 0)
(1.00354 -9.2771e-05 0)
(1.00358 -7.90519e-05 0)
(1.00361 -6.53143e-05 0)
(1.00363 -5.12496e-05 0)
(1.00366 -3.77613e-05 0)
(1.00366 -2.24934e-05 0)
(1.00368 -6.93764e-06 0)
(0.978265 0.0493673 0)
(1.03713 0.0914266 0)
(1.06812 0.0885579 0)
(1.06362 0.0705321 0)
(1.0617 0.0523804 0)
(1.06092 0.0382479 0)
(1.05721 0.0280377 0)
(1.05285 0.0207267 0)
(1.04918 0.0154119 0)
(1.04619 0.0114549 0)
(1.04381 0.00842706 0)
(1.04199 0.00605172 0)
(1.04068 0.004144 0)
(1.0398 0.00258646 0)
(1.03931 0.00130658 5.47799e-34)
(1.03916 0.000253053 -5.47799e-34)
(1.0393 -0.000602763 0)
(1.03967 -0.0012722 0)
(1.04022 -0.00176904 0)
(1.04091 -0.00209302 0)
(1.04169 -0.00224539 0)
(1.0425 -0.00222734 0)
(1.04329 -0.00204229 0)
(1.044 -0.00169716 0)
(1.04458 -0.00120473 0)
(1.04498 -0.00058465 0)
(1.04516 0.000138216 0)
(1.04508 0.000932588 0)
(1.04472 0.00176422 0)
(1.04409 0.00259481 0)
(1.04317 0.00338697 0)
(1.04199 0.00410765 0)
(1.04058 0.00472923 0)
(1.03899 0.00522995 0)
(1.03725 0.00559628 0)
(1.03541 0.00582424 0)
(1.03353 0.00591862 0)
(1.03164 0.00588976 0)
(1.02979 0.00575162 0)
(1.028 0.00552133 0)
(1.02631 0.00521803 0)
(1.02474 0.00486119 0)
(1.02329 0.00446899 0)
(1.02198 0.004057 0)
(1.0208 0.00363819 0)
(1.01975 0.0032233 0)
(1.01884 0.0028213 0)
(1.01805 0.0024392 0)
(1.01737 0.0020818 0)
(1.0168 0.00175196 0)
(1.01633 0.0014509 0)
(1.01595 0.001179 0)
(1.01564 0.000935843 0)
(1.0154 0.000720425 0)
(1.01522 0.000531576 0)
(1.0151 0.00036767 0)
(1.01501 0.00022675 0)
(1.01497 0.000106711 0)
(1.01496 5.33783e-06 0)
(1.01498 -7.93492e-05 0)
(1.01502 -0.000149297 0)
(1.01508 -0.00020575 0)
(1.01515 -0.000250465 0)
(1.01523 -0.000285057 0)
(1.01532 -0.000310779 0)
(1.01542 -0.000328929 0)
(1.01552 -0.000340686 0)
(1.01562 -0.000346977 0)
(1.01573 -0.000348682 0)
(1.01583 -0.000346384 0)
(1.01593 -0.000340713 0)
(1.01603 -0.000332184 0)
(1.01613 -0.000321261 0)
(1.01623 -0.000308428 0)
(1.01632 -0.00029409 0)
(1.0164 -0.00027859 0)
(1.01648 -0.000262196 0)
(1.01656 -0.00024503 0)
(1.01663 -0.000227194 0)
(1.01669 -0.000208802 0)
(1.01675 -0.000190003 0)
(1.0168 -0.000170936 0)
(1.01685 -0.000151685 0)
(1.01689 -0.000132301 0)
(1.01693 -0.000112836 0)
(1.01696 -9.33783e-05 0)
(1.01699 -7.3791e-05 0)
(1.01701 -5.45612e-05 0)
(1.01702 -3.46723e-05 0)
(1.01703 -1.42563e-05 0)
(0.975345 0.0342441 0)
(1.023 0.0711081 0)
(1.04941 0.0751542 0)
(1.0464 0.0647724 0)
(1.04815 0.0516439 0)
(1.05099 0.0400165 0)
(1.05021 0.0307465 0)
(1.04802 0.0235693 0)
(1.0459 0.0180087 0)
(1.04402 0.0136518 0)
(1.04243 0.0101789 0)
(1.04119 0.00736333 0)
(1.0403 0.00504667 0)
(1.03976 0.00311578 0)
(1.03955 0.00149899 0)
(1.03963 0.000150533 0)
(1.03997 -0.000953993 0)
(1.04054 -0.00183371 0)
(1.04129 -0.00249363 0)
(1.04218 -0.00293028 0)
(1.04316 -0.00314246 0)
(1.04416 -0.00312745 0)
(1.04514 -0.0028869 0)
(1.04603 -0.00242941 0)
(1.04677 -0.00177048 0)
(1.04731 -0.000933517 0)
(1.04759 4.8014e-05 0)
(1.04758 0.00113067 0)
(1.04724 0.00226524 0)
(1.04659 0.00339977 0)
(1.04561 0.00448281 0)
(1.04433 0.00546625 0)
(1.04279 0.00630947 0)
(1.04105 0.00698284 0)
(1.03915 0.00746991 0)
(1.03715 0.00776708 0)
(1.03512 0.00788095 0)
(1.0331 0.00782615 0)
(1.03113 0.00762385 0)
(1.02925 0.00729953 0)
(1.02748 0.00688037 0)
(1.02586 0.00639303 0)
(1.02438 0.00586153 0)
(1.02305 0.00530641 0)
(1.02187 0.00474525 0)
(1.02083 0.00419267 0)
(1.01994 0.00366031 0)
(1.01917 0.00315658 0)
(1.01853 0.00268698 0)
(1.01799 0.00225481 0)
(1.01755 0.00186151 0)
(1.0172 0.00150732 0)
(1.01693 0.00119155 0)
(1.01672 0.00091274 0)
(1.01657 0.000669009 0)
(1.01647 0.000457949 0)
(1.01641 0.00027666 0)
(1.01639 0.000122336 0)
(1.0164 -7.75159e-06 0)
(1.01644 -0.000115773 0)
(1.01649 -0.000204479 0)
(1.01656 -0.000276315 0)
(1.01665 -0.000333132 0)
(1.01674 -0.000376874 0)
(1.01684 -0.000409247 0)
(1.01695 -0.000431891 0)
(1.01705 -0.0004463 0)
(1.01716 -0.000453757 0)
(1.01727 -0.000455312 0)
(1.01738 -0.000451748 0)
(1.01749 -0.000443845 0)
(1.01759 -0.000432357 0)
(1.01769 -0.000417889 0)
(1.01779 -0.000401039 0)
(1.01788 -0.000382288 0)
(1.01796 -0.000362052 0)
(1.01805 -0.000340606 0)
(1.01812 -0.000318137 0)
(1.01819 -0.000294851 0)
(1.01826 -0.000270945 0)
(1.01832 -0.000246585 0)
(1.01837 -0.000221889 0)
(1.01842 -0.000196952 0)
(1.01846 -0.000171864 0)
(1.0185 -0.00014671 0)
(1.01853 -0.000121592 0)
(1.01855 -9.64381e-05 0)
(1.01858 -7.15766e-05 0)
(1.01858 -4.65705e-05 0)
(1.0186 -2.06468e-05 0)
(0.97406 0.0254388 0)
(1.01546 0.0565368 0)
(1.03759 0.0633321 0)
(1.03381 0.0577262 0)
(1.0368 0.048495 0)
(1.0415 0.0393354 0)
(1.04255 0.0313901 0)
(1.04192 0.0248014 0)
(1.04105 0.0193933 0)
(1.04013 0.0149461 0)
(1.03928 0.0112597 0)
(1.0386 0.00816878 0)
(1.03816 0.00555281 0)
(1.03798 0.00332395 0)
(1.03806 0.00142111 0)
(1.03842 -0.000192731 0)
(1.03902 -0.00153512 0)
(1.03983 -0.00262108 0)
(1.04082 -0.00344169 0)
(1.04196 -0.00399369 0)
(1.04319 -0.00426584 0)
(1.04445 -0.00425118 0)
(1.04568 -0.00394924 0)
(1.04681 -0.00336421 0)
(1.04777 -0.00251247 0)
(1.04849 -0.00142411 0)
(1.04891 -0.00014314 0)
(1.04899 0.00127498 0)
(1.04869 0.00276596 0)
(1.048 0.00425803 0)
(1.04693 0.0056792 0)
(1.04552 0.00696315 0)
(1.0438 0.0080557 0)
(1.04185 0.00891908 0)
(1.03974 0.00953288 0)
(1.03753 0.00989322 0)
(1.03529 0.0100107 0)
(1.03309 0.00990809 0)
(1.03097 0.00961686 0)
(1.02897 0.00917279 0)
(1.02711 0.00861245 0)
(1.02542 0.00797052 0)
(1.02391 0.00727804 0)
(1.02256 0.00656179 0)
(1.02139 0.00584417 0)
(1.02037 0.0051431 0)
(1.0195 0.00447216 0)
(1.01877 0.00384092 0)
(1.01817 0.00325546 0)
(1.01768 0.00271914 0)
(1.01728 0.00223324 0)
(1.01697 0.00179759 0)
(1.01674 0.00141086 0)
(1.01658 0.00107081 0)
(1.01646 0.000774518 0)
(1.0164 0.000518621 0)
(1.01637 0.000299545 0)
(1.01638 0.000113706 0)
(1.01642 -4.23811e-05 0)
(1.01648 -0.000171508 0)
(1.01655 -0.000277027 0)
(1.01664 -0.000361986 0)
(1.01674 -0.000428851 0)
(1.01684 -0.000479903 0)
(1.01696 -0.000517361 0)
(1.01707 -0.000543197 0)
(1.01719 -0.000559074 0)
(1.01731 -0.000566584 0)
(1.01742 -0.000566947 0)
(1.01753 -0.000561273 0)
(1.01764 -0.000550464 0)
(1.01775 -0.00053543 0)
(1.01785 -0.00051694 0)
(1.01795 -0.000495656 0)
(1.01805 -0.000472122 0)
(1.01813 -0.000446779 0)
(1.01822 -0.000419958 0)
(1.01829 -0.000391985 0)
(1.01836 -0.000363128 0)
(1.01843 -0.000333595 0)
(1.01849 -0.00030354 0)
(1.01854 -0.000273083 0)
(1.01859 -0.000242367 0)
(1.01864 -0.000211534 0)
(1.01867 -0.000180664 0)
(1.0187 -0.000149823 0)
(1.01873 -0.000118976 0)
(1.01875 -8.84356e-05 0)
(1.01876 -5.79434e-05 0)
(1.01877 -2.61594e-05 0)
(0.973459 0.0199687 0)
(1.01135 0.0462314 0)
(1.0303 0.0537766 0)
(1.02517 0.0509614 0)
(1.02824 0.0444747 0)
(1.03371 0.0373569 0)
(1.03579 0.0307194 0)
(1.03619 0.0248732 0)
(1.03621 0.0198225 0)
(1.03606 0.0154774 0)
(1.03582 0.0117334 0)
(1.03565 0.00848984 0)
(1.03562 0.00566479 0)
(1.03579 0.00319898 0)
(1.03619 0.00105055 1.1325e-33)
(1.03683 -0.000803817 -1.1325e-33)
(1.0377 -0.00238442 0)
(1.0388 -0.00367324 0)
(1.04008 -0.00466114 0)
(1.04152 -0.00533576 0)
(1.04306 -0.00567576 0)
(1.04464 -0.00566538 0)
(1.04619 -0.00529391 0)
(1.04763 -0.00456265 0)
(1.04887 -0.00348874 0)
(1.04983 -0.00210689 0)
(1.05045 -0.000469948 0)
(1.05064 0.00135163 0)
(1.05038 0.00326976 0)
(1.04966 0.00518898 0)
(1.04847 0.00701166 0)
(1.04686 0.0086489 0)
(1.04491 0.0100295 0)
(1.04269 0.0111043 0)
(1.04028 0.0118482 0)
(1.03779 0.0122597 0)
(1.03529 0.0123576 0)
(1.03286 0.0121769 0)
(1.03055 0.0117623 0)
(1.0284 0.0111626 0)
(1.02644 0.0104266 0)
(1.02468 0.00959875 0)
(1.02313 0.0087185 0)
(1.02177 0.0078191 0)
(1.02061 0.00692753 0)
(1.01962 0.00606466 0)
(1.0188 0.00524555 0)
(1.01812 0.00448035 0)
(1.01757 0.00377525 0)
(1.01713 0.0031332 0)
(1.01679 0.00255492 0)
(1.01654 0.00203932 0)
(1.01636 0.00158399 0)
(1.01624 0.00118552 0)
(1.01618 0.00083982 0)
(1.01615 0.000542444 0)
(1.01617 0.000289004 0)
(1.01621 7.51757e-05 0)
(1.01628 -0.00010298 0)
(1.01636 -0.000250635 0)
(1.01646 -0.000370534 0)
(1.01657 -0.0004659 0)
(1.01669 -0.000540266 0)
(1.01681 -0.000596496 0)
(1.01694 -0.000637117 0)
(1.01706 -0.000664337 0)
(1.01719 -0.000680278 0)
(1.01731 -0.000686559 0)
(1.01744 -0.000684639 0)
(1.01756 -0.000675853 0)
(1.01767 -0.000661313 0)
(1.01778 -0.000642013 0)
(1.01789 -0.000618875 0)
(1.01799 -0.000592605 0)
(1.01808 -0.00056379 0)
(1.01817 -0.00053293 0)
(1.01826 -0.000500463 0)
(1.01834 -0.000466773 0)
(1.01841 -0.000432132 0)
(1.01848 -0.000396755 0)
(1.01854 -0.000360824 0)
(1.01859 -0.000324505 0)
(1.01864 -0.000287953 0)
(1.01868 -0.000251297 0)
(1.01872 -0.000214616 0)
(1.01875 -0.000177975 0)
(1.01877 -0.00014136 0)
(1.0188 -0.000105077 0)
(1.0188 -6.89017e-05 0)
(1.01882 -3.10611e-05 0)
(0.973144 0.0162898 0)
(1.00893 0.0387264 0)
(1.02561 0.0461707 0)
(1.01915 0.0449506 0)
(1.02182 0.0403327 0)
(1.02746 0.0347879 0)
(1.03002 0.0292895 0)
(1.03103 0.0241816 0)
(1.03166 0.019558 0)
(1.03206 0.0154117 0)
(1.0323 0.0117035 0)
(1.03254 0.00838676 0)
(1.03288 0.00541565 0)
(1.03337 0.00275382 0)
(1.03407 0.000379617 0)
(1.035 -0.0017116 0)
(1.03616 -0.00351907 0)
(1.03756 -0.00502535 0)
(1.03917 -0.00620104 0)
(1.04096 -0.00701666 0)
(1.04288 -0.0074396 0)
(1.04485 -0.00743953 0)
(1.0468 -0.00699506 0)
(1.04863 -0.0061015 0)
(1.05024 -0.00477176 0)
(1.05152 -0.00304225 0)
(1.05239 -0.000976516 0)
(1.05274 0.0013346 0)
(1.05254 0.00377504 0)
(1.05176 0.0062165 0)
(1.05041 0.00852768 0)
(1.04855 0.0105898 0)
(1.04627 0.0123075 0)
(1.04368 0.0136177 0)
(1.0409 0.014492 0)
(1.03805 0.0149351 0)
(1.03522 0.0149796 0)
(1.03251 0.0146776 0)
(1.02997 0.0140919 0)
(1.02764 0.0132889 0)
(1.02556 0.0123324 0)
(1.02373 0.0112794 0)
(1.02214 0.0101785 0)
(1.02079 0.00906957 0)
(1.01964 0.00798373 0)
(1.0187 0.00694402 0)
(1.01793 0.00596629 0)
(1.01732 0.00506057 0)
(1.01684 0.00423242 0)
(1.01647 0.00348384 0)
(1.0162 0.0028143 0)
(1.01602 0.00222126 0)
(1.0159 0.00170068 0)
(1.01584 0.00124765 0)
(1.01583 0.000856702 0)
(1.01586 0.000522252 0)
(1.01592 0.000238848 0)
(1.016 1.29639e-06 0)
(1.01611 -0.000195479 0)
(1.01622 -0.00035702 0)
(1.01635 -0.000487224 0)
(1.01648 -0.000590501 0)
(1.01662 -0.000669918 0)
(1.01676 -0.000728898 0)
(1.0169 -0.000770468 0)
(1.01704 -0.000797106 0)
(1.01718 -0.000811252 0)
(1.01731 -0.000814718 0)
(1.01744 -0.000809169 0)
(1.01757 -0.000796097 0)
(1.01769 -0.000776857 0)
(1.01781 -0.000752516 0)
(1.01792 -0.000724007 0)
(1.01802 -0.000692086 0)
(1.01812 -0.000657448 0)
(1.01821 -0.000620672 0)
(1.0183 -0.000582258 0)
(1.01837 -0.000542558 0)
(1.01845 -0.000501861 0)
(1.01851 -0.000460428 0)
(1.01858 -0.000418471 0)
(1.01863 -0.000376177 0)
(1.01868 -0.000333682 0)
(1.01872 -0.000291094 0)
(1.01876 -0.000248506 0)
(1.01879 -0.000206014 0)
(1.01881 -0.000163596 0)
(1.01884 -0.000121513 0)
(1.01884 -7.95315e-05 0)
(1.01886 -3.55181e-05 0)
(0.972955 0.0136716 0)
(1.00739 0.0330978 0)
(1.02243 0.0401131 0)
(1.01481 0.0397933 0)
(1.01691 0.0364349 0)
(1.02242 0.0320597 0)
(1.02514 0.0274867 0)
(1.02645 0.0230354 0)
(1.02744 0.0188299 0)
(1.0282 0.0149129 0)
(1.0288 0.0112879 0)
(1.02936 0.00794067 0)
(1.02999 0.00485354 0)
(1.03076 0.0020148 0)
(1.03173 -0.000576675 0)
(1.03293 -0.00291249 0)
(1.03439 -0.00496552 0)
(1.03612 -0.00671223 0)
(1.03809 -0.00810672 0)
(1.04028 -0.00909413 0)
(1.04264 -0.00962652 0)
(1.04508 -0.00965608 0)
(1.04753 -0.00914624 0)
(1.04985 -0.00807656 0)
(1.05193 -0.00645155 0)
(1.05363 -0.00430832 0)
(1.05483 -0.00172233 0)
(1.0554 0.00119089 0)
(1.05527 0.00428162 0)
(1.05441 0.00737522 0)
(1.05284 0.0102929 0)
(1.05064 0.0128731 0)
(1.04794 0.0149892 0)
(1.04487 0.0165614 0)
(1.0416 0.0175607 0)
(1.03828 0.0180037 0)
(1.03504 0.0179439 0)
(1.03198 0.0174585 0)
(1.02916 0.0166366 0)
(1.02664 0.0155676 0)
(1.02443 0.0143341 0)
(1.02253 0.0130075 0)
(1.02092 0.0116469 0)
(1.01958 0.0102981 0)
(1.01848 0.00899546 0)
(1.0176 0.00776296 0)
(1.01691 0.00661619 0)
(1.01638 0.00556411 0)
(1.01599 0.00461071 0)
(1.01571 0.00375617 0)
(1.01553 0.00299791 0)
(1.01542 0.00233124 0)
(1.01538 0.00175008 0)
(1.0154 0.00124772 0)
(1.01545 0.000817082 0)
(1.01554 0.0004512 0)
(1.01565 0.000143195 0)
(1.01578 -0.000112675 0)
(1.01592 -0.000323484 0)
(1.01607 -0.000494735 0)
(1.01623 -0.000631746 0)
(1.01639 -0.000738801 0)
(1.01655 -0.000819909 0)
(1.01671 -0.000878731 0)
(1.01687 -0.00091862 0)
(1.01702 -0.000942632 0)
(1.01717 -0.000952996 0)
(1.01732 -0.000951874 0)
(1.01746 -0.000941204 0)
(1.01759 -0.000922628 0)
(1.01772 -0.000897572 0)
(1.01784 -0.0008672 0)
(1.01795 -0.00083248 0)
(1.01806 -0.000794268 0)
(1.01816 -0.000753295 0)
(1.01825 -0.000710162 0)
(1.01834 -0.000665365 0)
(1.01842 -0.000619287 0)
(1.01849 -0.00057228 0)
(1.01856 -0.000524609 0)
(1.01862 -0.000476478 0)
(1.01868 -0.000428057 0)
(1.01872 -0.000379481 0)
(1.01877 -0.000330875 0)
(1.0188 -0.000282339 0)
(1.01884 -0.000233954 0)
(1.01886 -0.000185677 0)
(1.01888 -0.000137723 0)
(1.01889 -8.98554e-05 0)
(1.0189 -3.96239e-05 0)
(0.972826 0.0117463 0)
(1.00633 0.0287838 0)
(1.02016 0.0352709 0)
(1.01157 0.0354488 0)
(1.01307 0.0329368 0)
(1.0183 0.0294162 0)
(1.02096 0.0255634 0)
(1.02237 0.021659 0)
(1.02354 0.0178294 0)
(1.02451 0.0141344 0)
(1.02533 0.0105995 0)
(1.02611 0.0072332 0)
(1.02695 0.00404037 0)
(1.02794 0.00102846 0)
(1.02915 -0.00178821 2.99952e-34)
(1.03061 -0.00438777 -2.99952e-34)
(1.03236 -0.00672766 0)
(1.03442 -0.0087556 0)
(1.03679 -0.0104119 0)
(1.03944 -0.0116242 0)
(1.04231 -0.0123155 0)
(1.04533 -0.0124144 0)
(1.04838 -0.0118581 0)
(1.05132 -0.0106046 0)
(1.054 -0.00864436 0)
(1.05625 -0.00601041 0)
(1.05788 -0.00278849 0)
(1.05875 0.000877831 0)
(1.05872 0.00479028 0)
(1.05777 0.00871207 0)
(1.0559 0.0123952 0)
(1.05324 0.0156162 0)
(1.04996 0.0182072 0)
(1.04626 0.0200691 0)
(1.04235 0.0211768 0)
(1.03843 0.0215678 0)
(1.03467 0.021328 0)
(1.0312 0.0205724 0)
(1.02808 0.0194259 0)
(1.02534 0.018009 0)
(1.023 0.0164276 0)
(1.02104 0.0147695 0)
(1.01943 0.0131038 0)
(1.01813 0.0114813 0)
(1.01711 0.0099381 0)
(1.01632 0.0084972 0)
(1.01573 0.00717236 0)
(1.01531 0.00597002 0)
(1.01503 0.00489128 0)
(1.01486 0.00393339 0)
(1.01478 0.0030908 0)
(1.01477 0.00235613 0)
(1.01482 0.0017209 0)
(1.01491 0.00117615 0)
(1.01504 0.000712838 0)
(1.01519 0.000322362 0)
(1.01536 -3.06415e-06 0)
(1.01554 -0.000272016 0)
(1.01572 -0.000491565 0)
(1.01591 -0.000667964 0)
(1.0161 -0.00080699 0)
(1.01629 -0.0009134 0)
(1.01648 -0.000992322 0)
(1.01666 -0.00104772 0)
(1.01684 -0.00108309 0)
(1.01701 -0.00110168 0)
(1.01717 -0.00110602 0)
(1.01733 -0.00109854 0)
(1.01747 -0.00108121 0)
(1.01761 -0.00105578 0)
(1.01775 -0.0010237 0)
(1.01787 -0.000986242 0)
(1.01799 -0.000944458 0)
(1.0181 -0.000899245 0)
(1.0182 -0.000851329 0)
(1.0183 -0.000801319 0)
(1.01839 -0.000749715 0)
(1.01847 -0.000696956 0)
(1.01854 -0.000643393 0)
(1.01861 -0.000589265 0)
(1.01867 -0.000534767 0)
(1.01873 -0.000480062 0)
(1.01878 -0.000425309 0)
(1.01882 -0.000370637 0)
(1.01886 -0.000316115 0)
(1.01889 -0.000261781 0)
(1.01891 -0.000207574 0)
(1.01893 -0.000153679 0)
(1.01894 -9.98916e-05 0)
(1.01895 -4.34503e-05 0)
(0.972728 0.0103129 0)
(1.00555 0.025434 0)
(1.01845 0.0313903 0)
(1.00906 0.031835 0)
(1.00999 0.0298897 0)
(1.01486 0.0269864 0)
(1.01734 0.0236862 0)
(1.01871 0.0202227 0)
(1.01992 0.0167079 0)
(1.02097 0.0132032 0)
(1.0219 0.00974435 0)
(1.0228 0.00635384 0)
(1.02378 0.00304896 0)
(1.02493 -0.000151541 0)
(1.02631 -0.00322131 3.07695e-34)
(1.02799 -0.00612107 -3.07695e-34)
(1.03002 -0.0087969 0)
(1.03243 -0.0111735 0)
(1.03522 -0.0131658 0)
(1.03838 -0.0146776 0)
(1.04185 -0.015601 0)
(1.04554 -0.0158286 0)
(1.04934 -0.0152645 0)
(1.05307 -0.0138351 0)
(1.05652 -0.0115046 0)
(1.05949 -0.00829236 0)
(1.06171 -0.0042895 0)
(1.06297 0.000327956 0)
(1.0631 0.00529797 0)
(1.06202 0.0102918 0)
(1.05975 0.0149576 0)
(1.05646 0.0189828 0)
(1.05239 0.0221429 0)
(1.04784 0.0243189 0)
(1.0431 0.0254974 0)
(1.03843 0.0257531 0)
(1.03404 0.0252222 0)
(1.03007 0.0240743 0)
(1.0266 0.0224846 0)
(1.02365 0.0206145 0)
(1.02119 0.0185981 0)
(1.01921 0.0165401 0)
(1.01763 0.0145181 0)
(1.01642 0.0125861 0)
(1.0155 0.0107786 0)
(1.01484 0.00911567 0)
(1.01439 0.00760667 0)
(1.0141 0.00625332 0)
(1.01395 0.00505219 0)
(1.01391 0.00399642 0)
(1.01395 0.00307669 0)
(1.01405 0.00228224 0)
(1.0142 0.00160164 0)
(1.01439 0.00102325 0)
(1.0146 0.000535786 0)
(1.01482 0.000128632 0)
(1.01505 -0.000207041 0)
(1.01529 -0.000482089 0)
(1.01552 -0.00070389 0)
(1.01576 -0.00087895 0)
(1.01598 -0.00101427 0)
(1.0162 -0.00111583 0)
(1.01642 -0.00118855 0)
(1.01662 -0.0012369 0)
(1.01681 -0.00126467 0)
(1.017 -0.00127508 0)
(1.01718 -0.00127105 0)
(1.01734 -0.00125508 0)
(1.0175 -0.00122932 0)
(1.01765 -0.00119552 0)
(1.01779 -0.0011552 0)
(1.01791 -0.00110965 0)
(1.01804 -0.00105994 0)
(1.01815 -0.00100694 0)
(1.01825 -0.00095143 0)
(1.01835 -0.000894022 0)
(1.01844 -0.000835239 0)
(1.01852 -0.000775499 0)
(1.0186 -0.000715101 0)
(1.01867 -0.000654282 0)
(1.01873 -0.000593232 0)
(1.01879 -0.000532123 0)
(1.01883 -0.000471121 0)
(1.01888 -0.000410321 0)
(1.01891 -0.000349747 0)
(1.01894 -0.000289403 0)
(1.01897 -0.000229225 0)
(1.01899 -0.000169378 0)
(1.01899 -0.000109684 0)
(1.01901 -4.70659e-05 0)
(0.972647 0.00925395 0)
(1.00493 0.0228265 0)
(1.0171 0.0282851 0)
(1.00703 0.0288611 0)
(1.00744 0.0273007 0)
(1.01193 0.0248456 0)
(1.01416 0.0219647 0)
(1.01538 0.0188463 0)
(1.01652 0.0155831 0)
(1.01755 0.0122307 0)
(1.01848 0.00882564 0)
(1.01941 0.0053933 0)
(1.02045 0.00195519 0)
(1.02167 -0.00146405 0)
(1.02318 -0.0048285 -7.91688e-35)
(1.02503 -0.00808485 7.91688e-35)
(1.02731 -0.0111658 0)
(1.03005 -0.0139774 0)
(1.03329 -0.0164075 0)
(1.03701 -0.0183243 0)
(1.04116 -0.0195836 0)
(1.04566 -0.0200352 0)
(1.05037 -0.0195354 0)
(1.05508 -0.0179634 0)
(1.05955 -0.0152403 0)
(1.06347 -0.0113546 0)
(1.06651 -0.00639068 0)
(1.06833 -0.000558093 0)
(1.06869 0.00579556 0)
(1.06743 0.0122064 0)
(1.0646 0.0181578 0)
(1.06043 0.0232037 0)
(1.05529 0.0270452 0)
(1.04961 0.0295495 0)
(1.04378 0.0307284 0)
(1.03816 0.0307155 0)
(1.033 0.0297272 0)
(1.02846 0.0280147 0)
(1.02462 0.0258247 0)
(1.02145 0.0233695 0)
(1.01893 0.0208141 0)
(1.01696 0.0182787 0)
(1.01548 0.0158457 0)
(1.01439 0.0135679 0)
(1.01364 0.011475 0)
(1.01315 0.00958014 0)
(1.01287 0.0078852 0)
(1.01276 0.00638462 0)
(1.01277 0.00506853 0)
(1.01288 0.00392445 0)
(1.01306 0.00293828 0)
(1.01329 0.00209526 0)
(1.01356 0.00138053 0)
(1.01384 0.000779518 0)
(1.01414 0.000278613 0)
(1.01444 -0.000134345 0)
(1.01474 -0.00047257 0)
(1.01504 -0.000745182 0)
(1.01533 -0.000961532 0)
(1.0156 -0.00112905 0)
(1.01587 -0.00125546 0)
(1.01612 -0.00134707 0)
(1.01636 -0.0014091 0)
(1.01659 -0.00144651 0)
(1.0168 -0.00146331 0)
(1.017 -0.00146286 0)
(1.01719 -0.00144809 0)
(1.01737 -0.00142158 0)
(1.01753 -0.00138555 0)
(1.01769 -0.00134185 0)
(1.01783 -0.00129199 0)
(1.01797 -0.00123724 0)
(1.01809 -0.00117866 0)
(1.01821 -0.00111714 0)
(1.01832 -0.00105343 0)
(1.01841 -0.000988155 0)
(1.0185 -0.000921793 0)
(1.01859 -0.000854709 0)
(1.01866 -0.000787187 0)
(1.01873 -0.000719463 0)
(1.01879 -0.000651725 0)
(1.01885 -0.000584141 0)
(1.0189 -0.000516825 0)
(1.01894 -0.000449823 0)
(1.01898 -0.000383134 0)
(1.01901 -0.000316751 0)
(1.01903 -0.000250613 0)
(1.01905 -0.000184845 0)
(1.01905 -0.000119288 0)
(1.01907 -5.05332e-05 0)
(0.972576 0.00849767 0)
(1.00442 0.0208103 0)
(1.01599 0.0258195 0)
(1.00535 0.0264508 0)
(1.00527 0.0251576 0)
(1.00937 0.0230311 0)
(1.01132 0.0204675 0)
(1.01232 0.0176172 0)
(1.0133 0.0145524 0)
(1.01422 0.0113168 0)
(1.01506 0.00793921 0)
(1.01593 0.00444089 0)
(1.01692 0.000842003 0)
(1.01814 -0.00283323 0)
(1.01969 -0.0065436 0)
(1.02166 -0.0102296 0)
(1.02413 -0.0138062 0)
(1.02719 -0.0171642 0)
(1.03087 -0.0201621 0)
(1.0352 -0.0226302 0)
(1.04014 -0.0243765 0)
(1.04559 -0.0251954 0)
(1.05141 -0.02488 0)
(1.05736 -0.0232414 0)
(1.06313 -0.0201325 0)
(1.06834 -0.0154811 0)
(1.07251 -0.00933814 0)
(1.07516 -0.00193747 0)
(1.07587 0.0062584 0)
(1.07438 0.014575 0)
(1.07075 0.0222444 0)
(1.06534 0.0286052 0)
(1.05874 0.0332616 0)
(1.05152 0.0360819 0)
(1.04427 0.0371318 0)
(1.03743 0.0366387 0)
(1.03134 0.0349457 0)
(1.02617 0.0324289 0)
(1.02196 0.0294328 0)
(1.01864 0.0262307 0)
(1.0161 0.0230179 0)
(1.01424 0.0199232 0)
(1.01292 0.0170258 0)
(1.01204 0.0143702 0)
(1.01151 0.011976 0)
(1.01125 0.00984529 0)
(1.01119 0.00796886 0)
(1.01129 0.0063309 0)
(1.01149 0.0049128 0)
(1.01178 0.00369493 0)
(1.01212 0.00265743 0)
(1.0125 0.00178078 0)
(1.01289 0.00104623 0)
(1.01329 0.00043606 0)
(1.01368 -6.54868e-05 0)
(1.01407 -0.000473788 0)
(1.01444 -0.000803272 0)
(1.0148 -0.00106469 0)
(1.01514 -0.00126702 0)
(1.01546 -0.00142019 0)
(1.01577 -0.00153155 0)
(1.01605 -0.00160755 0)
(1.01632 -0.00165445 0)
(1.01657 -0.00167701 0)
(1.0168 -0.00167932 0)
(1.01702 -0.00166489 0)
(1.01722 -0.0016368 0)
(1.0174 -0.00159766 0)
(1.01758 -0.00154959 0)
(1.01774 -0.00149444 0)
(1.01789 -0.00143371 0)
(1.01803 -0.00136865 0)
(1.01816 -0.00130032 0)
(1.01827 -0.00122956 0)
(1.01838 -0.00115708 0)
(1.01848 -0.00108345 0)
(1.01858 -0.00100908 0)
(1.01866 -0.000934312 0)
(1.01873 -0.000859426 0)
(1.0188 -0.00078463 0)
(1.01887 -0.000710105 0)
(1.01892 -0.000635965 0)
(1.01897 -0.000562264 0)
(1.01901 -0.000489012 0)
(1.01905 -0.000416194 0)
(1.01908 -0.000343792 0)
(1.0191 -0.000271741 0)
(1.01912 -0.000200101 0)
(1.01912 -0.000128732 0)
(1.01914 -5.3896e-05 0)
(0.972512 0.00799767 0)
(1.00399 0.0192852 0)
(1.01505 0.0238976 0)
(1.00391 0.0245424 0)
(1.00338 0.0234391 0)
(1.0071 0.0215592 0)
(1.00872 0.0192415 0)
(1.00946 0.016604 0)
(1.01022 0.0136975 0)
(1.01094 0.0105493 0)
(1.01161 0.00717598 0)
(1.01232 0.00358934 0)
(1.01318 -0.000197804 0)
(1.01429 -0.00416811 0)
(1.01578 -0.00828282 -1.35473e-33)
(1.01777 -0.0124804 1.35473e-33)
(1.02038 -0.0166677 0)
(1.0237 -0.0207147 0)
(1.02782 -0.0244501 0)
(1.03279 -0.027662 0)
(1.0386 -0.0301022 0)
(1.04516 -0.031495 0)
(1.05233 -0.0315526 0)
(1.05983 -0.0299925 0)
(1.06731 -0.0265626 0)
(1.07426 -0.0210813 0)
(1.08005 -0.013509 0)
(1.08393 -0.00406332 0)
(1.0852 0.0066552 0)
(1.08342 0.0176178 0)
(1.07863 0.0276341 0)
(1.07145 0.0357007 0)
(1.06277 0.0413047 0)
(1.05348 0.0443633 0)
(1.04434 0.0450462 0)
(1.03597 0.0437395 0)
(1.02879 0.0409788 0)
(1.02295 0.0373244 0)
(1.01842 0.0332533 0)
(1.01504 0.0291099 0)
(1.01262 0.0251116 0)
(1.01097 0.0213801 0)
(1.00993 0.0179753 0)
(1.00935 0.0149216 0)
(1.00911 0.0122207 0)
(1.00914 0.00985942 0)
(1.00936 0.00781431 0)
(1.0097 0.00605649 0)
(1.01014 0.00455618 0)
(1.01063 0.00328493 0)
(1.01115 0.00221607 0)
(1.01168 0.0013247 0)
(1.01221 0.000588027 0)
(1.01273 -1.46911e-05 0)
(1.01323 -0.000503476 0)
(1.01371 -0.00089498 0)
(1.01415 -0.00120389 0)
(1.01458 -0.00144268 0)