/*--------------------------------*- C++ -*----------------------------------*\
| =========                 |                                                 |
| \\      /  F ield         | OpenFOAM: The Open Source CFD Toolbox           |
|  \\    /   O peration     | Version:  v1806                                 |
|   \\  /    A nd           | Web:      www.OpenFOAM.com                      |
|    \\/     M anipulation  |                                                 |
\*---------------------------------------------------------------------------*/
FoamFile
{
    version     2.0;
    format      ascii;
    class       vectorField;
    location    "0.07";
    object      currentcloudofpoints;
}
// * * * * * * * * * * * * * * * * * * * * * * * * * * * * * * * * * * * * * //


648
(
(0.207576 0.438207 0.05)
(0.738216 0.557263 0.05)
(0.367017 0.64717 0.05)
(0.675407 0.344643 0.05)
(0.196824 0.420325 0.05)
(0.192625 0.394947 0.05)
(0.19968 0.367301 0.05)
(0.21545 0.343999 0.05)
(0.237153 0.3269 0.05)
(0.257908 0.319084 0.05)
(0.274707 0.318621 0.05)
(0.287158 0.32391 0.05)
(0.297454 0.333112 0.05)
(0.305929 0.341214 0.05)
(0.312517 0.3441 0.05)
(0.319813 0.343248 0.05)
(0.331256 0.33773 0.05)
(0.345256 0.325901 0.05)
(0.361876 0.306549 0.05)
(0.380671 0.28129 0.05)
(0.397459 0.265911 0.05)
(0.411715 0.258062 0.05)
(0.423506 0.25712 0.05)
(0.433553 0.258994 0.05)
(0.446132 0.259891 0.05)
(0.472403 0.251104 0.05)
(0.527361 0.220745 0.05)
(0.603049 0.211 0.05)
(0.66162 0.230371 0.05)
(0.708023 0.254202 0.05)
(0.747 0.280248 0.05)
(0.774321 0.310446 0.05)
(0.791118 0.351431 0.05)
(0.79316 0.40779 0.05)
(0.768754 0.468349 0.05)
(0.739981 0.505147 0.05)
(0.728683 0.525823 0.05)
(0.729334 0.537718 0.05)
(0.733423 0.547088 0.05)
(0.740652 0.568989 0.05)
(0.740544 0.58108 0.05)
(0.737626 0.593698 0.05)
(0.732279 0.605799 0.05)
(0.725789 0.616206 0.05)
(0.719313 0.624833 0.05)
(0.714046 0.632102 0.05)
(0.711069 0.639441 0.05)
(0.709921 0.648409 0.05)
(0.70845 0.660718 0.05)
(0.703729 0.677361 0.05)
(0.693898 0.697583 0.05)
(0.677182 0.718874 0.05)
(0.65584 0.737664 0.05)
(0.63342 0.750196 0.05)
(0.613372 0.756463 0.05)
(0.598901 0.755094 0.05)
(0.590099 0.74918 0.05)
(0.588005 0.737228 0.05)
(0.587905 0.724845 0.05)
(0.580621 0.721269 0.05)
(0.550772 0.759705 0.05)
(0.477787 0.84008 0.05)
(0.384849 0.818051 0.05)
(0.33281 0.80045 0.05)
(0.294811 0.787696 0.05)
(0.261626 0.765714 0.05)
(0.235258 0.74384 0.05)
(0.206068 0.692288 0.05)
(0.211935 0.573237 0.05)
(0.278411 0.465224 0.05)
(0.269909 0.42804 0.05)
(0.24753 0.435257 0.05)
(0.232057 0.44519 0.05)
(0.219182 0.44764 0.05)
(0.380771 0.642618 0.05)
(0.394175 0.638615 0.05)
(0.40615 0.632965 0.05)
(0.414121 0.623417 0.05)
(0.419493 0.607635 0.05)
(0.428518 0.581882 0.05)
(0.445673 0.542391 0.05)
(0.462137 0.480382 0.05)
(0.476278 0.412018 0.05)
(0.524264 0.372355 0.05)
(0.557561 0.368546 0.05)
(0.562091 0.378886 0.05)
(0.55725 0.390966 0.05)
(0.555112 0.40067 0.05)
(0.560773 0.404291 0.05)
(0.575086 0.400108 0.05)
(0.597886 0.387818 0.05)
(0.627233 0.369992 0.05)
(0.649397 0.352823 0.05)
(0.664945 0.333686 0.05)
(0.666658 0.308499 0.05)
(0.648973 0.279598 0.05)
(0.61502 0.255138 0.05)
(0.589847 0.242015 0.05)
(0.593334 0.2373 0.05)
(0.630901 0.244618 0.05)
(0.691899 0.272918 0.05)
(0.742596 0.315622 0.05)
(0.762797 0.351652 0.05)
(0.767708 0.384572 0.05)
(0.764905 0.406193 0.05)
(0.760854 0.405189 0.05)
(0.753485 0.381833 0.05)
(0.734174 0.35269 0.05)
(0.704433 0.337032 0.05)
(0.644228 0.364046 0.05)
(0.610191 0.386231 0.05)
(0.588398 0.402935 0.05)
(0.580147 0.413946 0.05)
(0.578429 0.422711 0.05)
(0.579081 0.43378 0.05)
(0.570883 0.466803 0.05)
(0.536062 0.543399 0.05)
(0.478203 0.623734 0.05)
(0.439433 0.68876 0.05)
(0.405821 0.70977 0.05)
(0.392596 0.697011 0.05)
(0.398644 0.6752 0.05)
(0.398036 0.660205 0.05)
(0.381443 0.653137 0.05)
(0.355162 0.658818 0.05)
(0.327222 0.67557 0.05)
(0.307008 0.695567 0.05)
(0.305791 0.727802 0.05)
(0.318758 0.7485 0.05)
(0.318109 0.749026 0.05)
(0.306142 0.735467 0.05)
(0.297322 0.716691 0.05)
(0.294261 0.703527 0.05)
(0.289695 0.699954 0.05)
(0.281447 0.696514 0.05)
(0.271377 0.691054 0.05)
(0.266275 0.685014 0.05)
(0.269164 0.681986 0.05)
(0.279252 0.681668 0.05)
(0.293579 0.680244 0.05)
(0.309059 0.675747 0.05)
(0.323721 0.668838 0.05)
(0.338741 0.661231 0.05)
(0.35367 0.653078 0.05)
(0.657732 0.577572 0.05)
(0.261699 0.573251 0.05)
(0.321313 0.661513 0.05)
(0.707644 0.404891 0.05)
(0.402196 0.612254 0.05)
(0.636383 0.355202 0.05)
(0.343634 0.706646 0.05)
(0.551615 0.354393 0.05)
(0.483232 0.818192 0.05)
(0.600889 0.445215 0.05)
(0.608771 0.271172 0.05)
(0.388768 0.504729 0.05)
(0.684604 0.651742 0.05)
(0.766857 0.455904 0.05)
(0.628579 0.677555 0.05)
(0.25607 0.732137 0.05)
(0.418763 0.345172 0.05)
(0.670436 0.245294 0.05)
(0.372906 0.641692 0.05)
(0.344332 0.655381 0.05)
(0.677312 0.509217 0.05)
(0.65748 0.545262 0.05)
(0.30187 0.673836 0.05)
(0.258284 0.659591 0.05)
(0.432047 0.5638 0.05)
(0.407337 0.620275 0.05)
(0.658992 0.360175 0.05)
(0.723051 0.364195 0.05)
(0.719299 0.505811 0.05)
(0.780247 0.393335 0.05)
(0.582722 0.45657 0.05)
(0.606349 0.398594 0.05)
(0.581957 0.364338 0.05)
(0.490163 0.389117 0.05)
(0.369508 0.690202 0.05)
(0.436595 0.696164 0.05)
(0.658982 0.303828 0.05)
(0.649344 0.35055 0.05)
(0.602346 0.383237 0.05)
(0.583945 0.388664 0.05)
(0.631532 0.626891 0.05)
(0.598283 0.650378 0.05)
(0.308445 0.723611 0.05)
(0.35903 0.659955 0.05)
(0.238268 0.588953 0.05)
(0.245498 0.554697 0.05)
(0.527984 0.786982 0.05)
(0.624992 0.657127 0.05)
(0.227433 0.675467 0.05)
(0.301414 0.75058 0.05)
(0.470985 0.286275 0.05)
(0.527877 0.257645 0.05)
(0.719371 0.280491 0.05)
(0.566663 0.223088 0.05)
(0.690074 0.551166 0.05)
(0.640085 0.458354 0.05)
(0.281158 0.665683 0.05)
(0.368879 0.640096 0.05)
(0.667072 0.372404 0.05)
(0.3359 0.549388 0.05)
(0.456822 0.484122 0.05)
(0.656439 0.331103 0.05)
(0.502978 0.59973 0.05)
(0.463876 0.751511 0.05)
(0.613373 0.364385 0.05)
(0.327253 0.683743 0.05)
(0.772685 0.330004 0.05)
(0.528899 0.287572 0.05)
(0.668873 0.684938 0.05)
(0.463578 0.836408 0.05)
(0.298567 0.473758 0.05)
(0.493089 0.251064 0.05)
(0.787734 0.359022 0.05)
(0.733319 0.504535 0.05)
(0.708742 0.550629 0.05)
(0.707679 0.579812 0.05)
(0.385399 0.454682 0.05)
(0.334827 0.636594 0.05)
(0.643713 0.596872 0.05)
(0.621018 0.593444 0.05)
(0.38067 0.331649 0.05)
(0.468926 0.261479 0.05)
(0.377781 0.626866 0.05)
(0.424666 0.556285 0.05)
(0.656332 0.724105 0.05)
(0.622119 0.729583 0.05)
(0.34865 0.793657 0.05)
(0.213737 0.692784 0.05)
(0.303669 0.439749 0.05)
(0.255627 0.355799 0.05)
(0.508263 0.346873 0.05)
(0.38586 0.38985 0.05)
(0.615841 0.709688 0.05)
(0.542739 0.769616 0.05)
(0.570838 0.582374 0.05)
(0.451842 0.695714 0.05)
(0.534477 0.345767 0.05)
(0.556359 0.334302 0.05)
(0.561336 0.589239 0.05)
(0.691837 0.684222 0.05)
(0.453511 0.451581 0.05)
(0.491041 0.36953 0.05)
(0.61614 0.219672 0.05)
(0.748254 0.289329 0.05)
(0.314092 0.650188 0.05)
(0.344853 0.643265 0.05)
(0.688902 0.59609 0.05)
(0.658731 0.598269 0.05)
(0.369207 0.64479 0.05)
(0.355962 0.650597 0.05)
(0.38383 0.639832 0.05)
(0.358124 0.647755 0.05)
(0.398603 0.634568 0.05)
(0.345492 0.652565 0.05)
(0.332288 0.659373 0.05)
(0.741963 0.377295 0.05)
(0.74617 0.438844 0.05)
(0.654516 0.530607 0.05)
(0.718143 0.487766 0.05)
(0.622434 0.534218 0.05)
(0.643703 0.561895 0.05)
(0.706035 0.505293 0.05)
(0.337584 0.660556 0.05)
(0.321918 0.668243 0.05)
(0.282008 0.673709 0.05)
(0.305074 0.67524 0.05)
(0.255924 0.647909 0.05)
(0.245029 0.610648 0.05)
(0.286215 0.677682 0.05)
(0.416891 0.60447 0.05)
(0.410623 0.622103 0.05)
(0.429054 0.57466 0.05)
(0.415294 0.599703 0.05)
(0.450359 0.525521 0.05)
(0.414627 0.593252 0.05)
(0.404329 0.617465 0.05)
(0.666085 0.352877 0.05)
(0.698239 0.343508 0.05)
(0.63433 0.371542 0.05)
(0.687407 0.350234 0.05)
(0.607428 0.390263 0.05)
(0.708688 0.366434 0.05)
(0.730964 0.397709 0.05)
(0.774775 0.40648 0.05)
(0.772102 0.3569 0.05)
(0.753878 0.460669 0.05)
(0.761535 0.455542 0.05)
(0.724237 0.493938 0.05)
(0.739713 0.488747 0.05)
(0.776789 0.428527 0.05)
(0.589817 0.415436 0.05)
(0.591885 0.405908 0.05)
(0.585767 0.435187 0.05)
(0.599604 0.414293 0.05)
(0.563185 0.496084 0.05)
(0.598396 0.434867 0.05)
(0.617053 0.399727 0.05)
(0.510064 0.37696 0.05)
(0.467774 0.431215 0.05)
(0.559362 0.363345 0.05)
(0.550588 0.360722 0.05)
(0.574245 0.372121 0.05)
(0.578511 0.356207 0.05)
(0.528505 0.364389 0.05)
(0.436239 0.694329 0.05)
(0.486666 0.611749 0.05)
(0.39419 0.714532 0.05)
(0.383926 0.718139 0.05)
(0.381942 0.694306 0.05)
(0.355315 0.690678 0.05)
(0.374527 0.722954 0.05)
(0.638592 0.361013 0.05)
(0.615229 0.377356 0.05)
(0.65655 0.344442 0.05)
(0.662188 0.332093 0.05)
(0.665924 0.321428 0.05)
(0.637093 0.281518 0.05)
(0.65858 0.311551 0.05)
(0.567013 0.396447 0.05)
(0.568309 0.388698 0.05)
(0.572953 0.397994 0.05)
(0.588662 0.38924 0.05)
(0.585634 0.393505 0.05)
(0.621701 0.369968 0.05)
(0.611684 0.374987 0.05)
(0.46306 0.829243 0.05)
(0.322421 0.748589 0.05)
(0.538725 0.765471 0.05)
(0.614304 0.625293 0.05)
(0.562448 0.722742 0.05)
(0.636605 0.617738 0.05)
(0.553191 0.599699 0.05)
(0.382189 0.655594 0.05)
(0.390934 0.666469 0.05)
(0.357009 0.659053 0.05)
(0.330403 0.675748 0.05)
(0.32511 0.678167 0.05)
(0.414924 0.810074 0.05)
(0.308965 0.713826 0.05)
(0.236835 0.649641 0.05)
(0.233157 0.652923 0.05)
(0.246539 0.659073 0.05)
(0.241561 0.569817 0.05)
(0.262033 0.67056 0.05)
(0.342686 0.488302 0.05)
(0.342409 0.474338 0.05)
(0.524368 0.790151 0.05)
(0.555343 0.737312 0.05)
(0.450463 0.832021 0.05)
(0.585179 0.692156 0.05)
(0.350465 0.772632 0.05)
(0.602379 0.678675 0.05)
(0.638751 0.66662 0.05)
(0.281042 0.715559 0.05)
(0.297269 0.734463 0.05)
(0.259488 0.699605 0.05)
(0.264606 0.717603 0.05)
(0.239212 0.677295 0.05)
(0.231799 0.697206 0.05)
(0.286985 0.748724 0.05)
(0.593945 0.25137 0.05)
(0.645209 0.280544 0.05)
(0.541849 0.245882 0.05)
(0.49158 0.278086 0.05)
(0.519331 0.249734 0.05)
(0.440323 0.322195 0.05)
(0.466663 0.318891 0.05)
(0.595536 0.228618 0.05)
(0.540693 0.23426 0.05)
(0.670239 0.2544 0.05)
(0.642689 0.238572 0.05)
(0.738797 0.302143 0.05)
(0.69313 0.260006 0.05)
(0.622322 0.22845 0.05)
(0.681788 0.538759 0.05)
(0.670896 0.559832 0.05)
(0.694671 0.535911 0.05)
(0.676967 0.57027 0.05)
(0.714971 0.517874 0.05)
(0.740966 0.431448 0.05)
(0.713833 0.462183 0.05)
(0.651989 0.492503 0.05)
(0.694162 0.434245 0.05)
(0.612913 0.537033 0.05)
(0.327067 0.664251 0.05)
(0.315744 0.667347 0.05)
(0.290273 0.671889 0.05)
(0.30453 0.667946 0.05)
(0.254537 0.633642 0.05)
(0.39555 0.63372 0.05)
(0.392963 0.632507 0.05)
(0.369955 0.641254 0.05)
(0.391048 0.630428 0.05)
(0.342642 0.652049 0.05)
(0.622462 0.381849 0.05)
(0.637309 0.377326 0.05)
(0.668235 0.361571 0.05)
(0.636656 0.390309 0.05)
(0.697362 0.376409 0.05)
(0.241271 0.633368 0.05)
(0.256518 0.56026 0.05)
(0.3032 0.508597 0.05)
(0.299223 0.538748 0.05)
(0.366166 0.55001 0.05)
(0.459905 0.480087 0.05)
(0.465077 0.431862 0.05)
(0.446334 0.528948 0.05)
(0.479733 0.395366 0.05)
(0.425704 0.567928 0.05)
(0.624843 0.370156 0.05)
(0.654178 0.343189 0.05)
(0.636019 0.360406 0.05)
(0.65081 0.302834 0.05)
(0.646374 0.347988 0.05)
(0.524324 0.566556 0.05)
(0.468013 0.651533 0.05)
(0.55442 0.531937 0.05)
(0.403114 0.729944 0.05)
(0.567428 0.520723 0.05)
(0.481778 0.823322 0.05)
(0.56405 0.615916 0.05)
(0.554061 0.729474 0.05)
(0.548939 0.596752 0.05)
(0.554393 0.706485 0.05)
(0.584231 0.38055 0.05)
(0.60096 0.377351 0.05)
(0.59772 0.369645 0.05)
(0.622926 0.363758 0.05)
(0.600998 0.356803 0.05)
(0.380111 0.664155 0.05)
(0.344747 0.668535 0.05)
(0.363448 0.666336 0.05)
(0.319026 0.736308 0.05)
(0.340704 0.679904 0.05)
(0.767993 0.333742 0.05)
(0.779853 0.357749 0.05)
(0.75614 0.309812 0.05)
(0.785189 0.381493 0.05)
(0.738439 0.288553 0.05)
(0.614345 0.263177 0.05)
(0.514085 0.275531 0.05)
(0.576387 0.255122 0.05)
(0.483168 0.3295 0.05)
(0.565259 0.263711 0.05)
(0.642295 0.643785 0.05)
(0.663222 0.663791 0.05)
(0.670719 0.647965 0.05)
(0.652522 0.684105 0.05)
(0.681722 0.672649 0.05)
(0.383382 0.795407 0.05)
(0.366245 0.787612 0.05)
(0.514197 0.805981 0.05)
(0.335552 0.779459 0.05)
(0.573628 0.71405 0.05)
(0.223051 0.604406 0.05)
(0.301688 0.481668 0.05)
(0.223784 0.580285 0.05)
(0.355766 0.452999 0.05)
(0.211191 0.625953 0.05)
(0.49444 0.256945 0.05)
(0.526148 0.232646 0.05)
(0.458199 0.284011 0.05)
(0.582635 0.218224 0.05)
(0.430817 0.305372 0.05)
(0.782032 0.33125 0.05)
(0.792283 0.385857 0.05)
(0.780473 0.436286 0.05)
(0.771739 0.459166 0.05)
(0.787202 0.400208 0.05)
(0.744502 0.488835 0.05)
(0.733107 0.508757 0.05)
(0.722945 0.557389 0.05)
(0.726142 0.568934 0.05)
(0.718716 0.545931 0.05)
(0.709497 0.567646 0.05)
(0.720028 0.530247 0.05)
(0.695998 0.570017 0.05)
(0.682091 0.58516 0.05)
(0.20774 0.375166 0.05)
(0.2352 0.343048 0.05)
(0.2068 0.403383 0.05)
(0.365542 0.606737 0.05)
(0.220165 0.409381 0.05)
(0.291808 0.626529 0.05)
(0.267292 0.615481 0.05)
(0.707538 0.611472 0.05)
(0.700098 0.6166 0.05)
(0.627915 0.592651 0.05)
(0.693477 0.62039 0.05)
(0.585042 0.515003 0.05)
(0.57573 0.551763 0.05)
(0.689067 0.623562 0.05)
(0.404236 0.282913 0.05)
(0.424255 0.277926 0.05)
(0.408621 0.300864 0.05)
(0.462292 0.261557 0.05)
(0.395062 0.35845 0.05)
(0.41709 0.305426 0.05)
(0.534662 0.220096 0.05)
(0.419367 0.541854 0.05)
(0.42137 0.542279 0.05)
(0.393966 0.605812 0.05)
(0.428836 0.52818 0.05)
(0.387954 0.626482 0.05)
(0.407807 0.592014 0.05)
(0.435466 0.507655 0.05)
(0.632541 0.743131 0.05)
(0.61494 0.745785 0.05)
(0.637409 0.730912 0.05)
(0.604861 0.740359 0.05)
(0.681877 0.692291 0.05)
(0.658749 0.712201 0.05)
(0.601097 0.730103 0.05)
(0.375628 0.808881 0.05)
(0.311728 0.789178 0.05)
(0.27173 0.759184 0.05)
(0.259539 0.756654 0.05)
(0.30884 0.776725 0.05)
(0.221322 0.699673 0.05)
(0.219827 0.715113 0.05)
(0.202135 0.63863 0.05)
(0.276171 0.479271 0.05)
(0.279532 0.372551 0.05)
(0.279267 0.402817 0.05)
(0.333544 0.410837 0.05)
(0.396653 0.480016 0.05)
(0.237374 0.398824 0.05)
(0.34768 0.370219 0.05)
(0.357424 0.33765 0.05)
(0.460872 0.365092 0.05)
(0.374408 0.310082 0.05)
(0.614152 0.289533 0.05)
(0.585267 0.297366 0.05)
(0.39073 0.291399 0.05)
(0.601309 0.718183 0.05)
(0.59502 0.706628 0.05)
(0.605216 0.695093 0.05)
(0.555486 0.749315 0.05)
(0.629518 0.695184 0.05)
(0.596628 0.692423 0.05)
(0.458912 0.842592 0.05)
(0.688064 0.626454 0.05)
(0.68811 0.630557 0.05)
(0.478518 0.651122 0.05)
(0.693206 0.637807 0.05)
(0.392186 0.743648 0.05)
(0.335674 0.727973 0.05)
(0.700394 0.651516 0.05)
(0.41073 0.443265 0.05)
(0.395481 0.43424 0.05)
(0.574711 0.332999 0.05)
(0.373438 0.417492 0.05)
(0.63623 0.340647 0.05)
(0.643913 0.328765 0.05)
(0.35282 0.391126 0.05)
(0.700757 0.667765 0.05)
(0.692055 0.692971 0.05)
(0.679792 0.634612 0.05)
(0.67294 0.717387 0.05)
(0.440012 0.814785 0.05)
(0.418435 0.763417 0.05)
(0.649148 0.735895 0.05)
(0.438246 0.490982 0.05)
(0.437394 0.471317 0.05)
(0.465948 0.396954 0.05)
(0.432313 0.456756 0.05)
(0.482665 0.386321 0.05)
(0.561355 0.347802 0.05)
(0.422996 0.44778 0.05)
(0.604256 0.214078 0.05)
(0.671079 0.237992 0.05)
(0.690714 0.251059 0.05)
(0.726139 0.269274 0.05)
(0.637848 0.22911 0.05)
(0.721147 0.272244 0.05)
(0.763654 0.301115 0.05)
(0.284535 0.344815 0.05)
(0.410704 0.47925 0.05)
(0.321066 0.651559 0.05)
(0.422439 0.521098 0.05)
(0.296441 0.662007 0.05)
(0.320358 0.657797 0.05)
(0.419884 0.536953 0.05)
(0.725632 0.578047 0.05)
(0.723014 0.588745 0.05)
(0.666403 0.597422 0.05)
(0.718302 0.598296 0.05)
(0.599594 0.51001 0.05)
(0.611605 0.460952 0.05)
(0.713036 0.606195 0.05)
(0.699269 0.590031 0.05)
(0.6464 0.582437 0.05)
(0.608304 0.549565 0.05)
(0.645364 0.594982 0.05)
(0.621695 0.436266 0.05)
(0.605949 0.456977 0.05)
(0.311817 0.647672 0.05)
(0.263917 0.631845 0.05)
(0.277485 0.65463 0.05)
(0.361906 0.636148 0.05)
(0.34233 0.649196 0.05)
(0.369013 0.637549 0.05)
(0.712198 0.534117 0.05)
(0.708613 0.531258 0.05)
(0.69814 0.554961 0.05)
(0.447046 0.503537 0.05)
(0.440778 0.532771 0.05)
(0.458348 0.450954 0.05)
(0.286425 0.355347 0.05)
(0.380467 0.572305 0.05)
(0.326274 0.621982 0.05)
(0.599131 0.586958 0.05)
(0.550404 0.569792 0.05)
(0.481125 0.637716 0.05)
(0.447011 0.704044 0.05)
(0.325634 0.730368 0.05)
(0.374385 0.774096 0.05)
(0.554659 0.332493 0.05)
(0.645759 0.315613 0.05)
(0.635079 0.298253 0.05)
(0.676797 0.706485 0.05)
(0.563793 0.591384 0.05)
(0.689697 0.651989 0.05)
(0.372961 0.367435 0.05)
(0.546298 0.316857 0.05)
(0.456733 0.355598 0.05)
(0.525445 0.35121 0.05)
(0.607895 0.346007 0.05)
(0.626771 0.346455 0.05)
(0.773613 0.319693 0.05)
(0.761079 0.306913 0.05)
(0.781846 0.345665 0.05)
(0.618674 0.721236 0.05)
(0.647849 0.712501 0.05)
(0.638966 0.70643 0.05)
(0.222102 0.561821 0.05)
(0.228681 0.554565 0.05)
(0.320079 0.432347 0.05)
(0.442099 0.83976 0.05)
(0.527332 0.792588 0.05)
(0.397646 0.814826 0.05)
(0.537027 0.221348 0.05)
(0.472818 0.262371 0.05)
(0.55323 0.218428 0.05)
)


// ************************************************************************* //
