/*--------------------------------*- C++ -*----------------------------------*\
| =========                 |                                                 |
| \\      /  F ield         | OpenFOAM: The Open Source CFD Toolbox           |
|  \\    /   O peration     | Version:  v1806                                 |
|   \\  /    A nd           | Web:      www.OpenFOAM.com                      |
|    \\/     M anipulation  |                                                 |
\*---------------------------------------------------------------------------*/
FoamFile
{
    version     2.0;
    format      ascii;
    class       volScalarField;
    location    "0.07";
    object      p;
}
// * * * * * * * * * * * * * * * * * * * * * * * * * * * * * * * * * * * * * //

dimensions      [0 2 -2 0 0 0 0];


internalField   nonuniform List<scalar> 
5400
(
-0.441716
-0.882718
-1.09777
-1.19226
-1.24664
-1.28102
-1.30371
-1.3203
-1.33404
-1.34644
-1.3583
-1.37017
-1.38245
-1.39542
-1.40909
-1.42329
-1.4376
-1.45127
-1.46326
-1.47218
-1.47632
-1.47372
-1.46217
-1.43989
-1.40422
-1.35332
-1.28564
-1.20012
-1.09632
-0.974494
-0.835646
-0.681481
-0.514341
-0.337079
-0.152913
0.0347378
0.222422
0.406817
0.584858
0.753842
0.911494
1.05599
1.18604
1.30162
1.40127
1.48529
1.55409
1.60829
1.64872
1.67632
1.69213
1.69724
1.69276
1.67976
1.6593
1.63236
1.59986
1.56267
1.52155
1.4772
1.43024
1.38122
1.33063
1.27888
1.22633
1.1733
1.12004
1.06676
1.01366
0.960867
0.908503
0.856657
0.805395
0.754762
0.704786
0.655482
0.606852
0.558885
0.51156
0.464848
0.418717
0.373125
0.328024
0.283365
0.239097
0.195164
0.151507
0.108065
0.0647779
0.0215829
-0.860892
-1.01047
-1.12765
-1.19599
-1.24137
-1.2748
-1.29883
-1.31661
-1.33124
-1.34429
-1.35661
-1.36883
-1.38147
-1.39483
-1.40903
-1.42395
-1.4392
-1.45406
-1.46749
-1.47807
-1.48406
-1.48345
-1.47406
-1.45319
-1.41895
-1.36915
-1.30206
-1.21653
-1.11206
-0.988924
-0.848148
-0.691528
-0.521525
-0.341141
-0.153744
0.037099
0.227801
0.414928
0.595336
0.766279
0.925494
1.07125
1.20234
1.31734
1.41653
1.49998
1.56806
1.62139
1.66085
1.6874
1.70213
1.70617
1.70063
1.68663
1.66522
1.6374
1.6041
1.56617
1.5244
1.47946
1.43199
1.38252
1.33154
1.27946
1.22663
1.17336
1.11989
1.06646
1.01323
0.960333
0.907892
0.855992
0.804693
0.754038
0.704055
0.654757
0.606142
0.558199
0.510906
0.464234
0.418148
0.372603
0.327554
0.282953
0.238745
0.194874
0.15128
0.107905
0.0646874
0.0215561
-1.0181
-1.08545
-1.15624
-1.2057
-1.24331
-1.27458
-1.29817
-1.31569
-1.33004
-1.34282
-1.35486
-1.3669
-1.37953
-1.39315
-1.40802
-1.42408
-1.44101
-1.45817
-1.47449
-1.48853
-1.49846
-1.50207
-1.49689
-1.48025
-1.44964
-1.40266
-1.33733
-1.25227
-1.14686
-1.02133
-0.876787
-0.715202
-0.539292
-0.352366
-0.158134
0.0395068
0.236668
0.429663
0.615155
0.790271
0.952675
1.1006
1.2328
1.34854
1.44744
1.53
1.59672
1.64834
1.68582
1.71024
1.72278
1.72461
1.71692
1.70085
1.6775
1.64788
1.61292
1.5735
1.53037
1.48424
1.43572
1.38533
1.33355
1.28078
1.22737
1.17361
1.11974
1.06597
1.01247
0.959364
0.906762
0.854744
0.803366
0.752666
0.702665
0.653373
0.604786
0.556888
0.509656
0.463057
0.417055
0.371605
0.326659
0.282166
0.238071
0.194318
0.150846
0.107595
0.0645029
0.0214959
-1.12059
-1.1531
-1.19521
-1.22726
-1.25506
-1.28113
-1.3018
-1.31738
-1.33025
-1.3418
-1.35283
-1.36411
-1.37634
-1.39008
-1.40568
-1.42325
-1.44259
-1.46314
-1.48386
-1.50326
-1.51936
-1.5297
-1.53145
-1.52155
-1.49695
-1.45476
-1.39253
-1.30854
-1.20191
-1.07282
-0.922502
-0.753195
-0.568033
-0.37083
-0.165842
0.042496
0.249808
0.452004
0.645446
0.827062
0.994417
1.14573
1.27986
1.39622
1.49472
1.57591
1.6405
1.68942
1.72384
1.74497
1.75411
1.75256
1.74157
1.72235
1.69604
1.66367
1.62621
1.58451
1.53935
1.49141
1.4413
1.38952
1.33654
1.28274
1.22845
1.17396
1.11948
1.06521
1.01131
0.957889
0.905048
0.852856
0.80136
0.750591
0.700565
0.651284
0.602739
0.55491
0.507769
0.461283
0.415409
0.370102
0.325309
0.280979
0.237056
0.19348
0.150191
0.107125
0.0642213
0.0214023
-1.19144
-1.21025
-1.23551
-1.25425
-1.27292
-1.29286
-1.30926
-1.32165
-1.33194
-1.34131
-1.3505
-1.36034
-1.37165
-1.38516
-1.40139
-1.42069
-1.44304
-1.46801
-1.49465
-1.52143
-1.54616
-1.56606
-1.5778
-1.57768
-1.56197
-1.52697
-1.46956
-1.38744
-1.2794
-1.14551
-0.987146
-0.806978
-0.60875
-0.397021
-0.176849
0.046546
0.268089
0.483114
0.68756
0.878094
1.05217
1.20803
1.34462
1.46147
1.55928
1.63841
1.6999
1.74501
1.77512
1.79167
1.79613
1.78993
1.77444
1.75094
1.72062
1.68456
1.64373
1.59899
1.55111
1.50077
1.44853
1.39492
1.34035
1.28519
1.22975
1.17429
1.11901
1.06409
1.00966
0.955835
0.902684
0.850269
0.798624
0.747772
0.697719
0.64846
0.599977
0.552245
0.505232
0.458899
0.4132
0.368083
0.323497
0.279387
0.235693
0.192355
0.149309
0.106493
0.0638415
0.0212757
-1.24514
-1.25795
-1.27352
-1.28292
-1.29405
-1.30801
-1.3196
-1.32799
-1.33479
-1.34107
-1.34756
-1.35514
-1.36481
-1.37752
-1.39409
-1.41513
-1.44093
-1.4713
-1.50544
-1.54178
-1.57795
-1.61073
-1.63614
-1.64962
-1.64636
-1.62163
-1.5713
-1.49224
-1.3827
-1.24259
-1.07353
-0.878758
-0.662918
-0.43163
-0.19108
0.0524232
0.292844
0.524745
0.743514
0.9455
1.12806
1.2895
1.429
1.54627
1.64248
1.71849
1.77566
1.81558
1.83994
1.85046
1.84881
1.83659
1.81532
1.78636
1.75095
1.71022
1.66515
1.61661
1.56534
1.51201
1.45716
1.40128
1.34475
1.28793
1.23108
1.17444
1.11819
1.06248
1.00743
0.953107
0.899588
0.84691
0.795096
0.744154
0.694079
0.644857
0.596462
0.548861
0.502016
0.455881
0.410405
0.365534
0.321212
0.277379
0.233975
0.190937
0.148199
0.105696
0.0633619
0.0211156
-1.28982
-1.29963
-1.30935
-1.31209
-1.31704
-1.32542
-1.332
-1.33583
-1.3384
-1.34071
-1.34353
-1.34789
-1.355
-1.36607
-1.38235
-1.40488
-1.43435
-1.47096
-1.51416
-1.56247
-1.61331
-1.66297
-1.7066
-1.73848
-1.75235
-1.74199
-1.70181
-1.6275
-1.51652
-1.36855
-1.18552
-0.971546
-0.732496
-0.475494
-0.208291
0.0613242
0.326036
0.579406
0.816137
1.03221
1.22492
1.39276
1.53537
1.65224
1.74583
1.81735
1.86864
1.90169
1.9186
1.9214
1.91204
1.89232
1.86389
1.82822
1.78662
1.74023
1.69006
1.63695
1.58165
1.52477
1.46683
1.40827
1.34946
1.29069
1.23221
1.1742
1.11684
1.06022
1.00445
0.949578
0.89565
0.842688
0.790697
0.739669
0.689589
0.64043
0.592157
0.544726
0.498092
0.452204
0.407005
0.362435
0.318435
0.274942
0.231891
0.189218
0.146853
0.104731
0.062781
0.0209215
-1.32976
-1.33783
-1.34371
-1.34151
-1.34128
-1.34449
-1.34599
-1.34484
-1.34248
-1.33991
-1.33798
-1.33791
-1.34119
-1.34946
-1.36444
-1.38776
-1.42076
-1.46419
-1.51797
-1.58085
-1.65013
-1.72151
-1.78909
-1.84557
-1.88276
-1.89231
-1.86654
-1.79942
-1.6873
-1.52948
-1.32839
-1.08934
-0.820001
-0.529579
-0.227975
0.0750275
0.370439
0.65055
0.909244
1.14212
1.34648
1.52105
1.66508
1.78152
1.87118
1.93643
1.97981
2.00393
2.01136
2.00451
1.98564
1.95677
1.91971
1.87602
1.82708
1.77404
1.71791
1.65951
1.59954
1.53858
1.47711
1.41552
1.35412
1.29316
1.23285
1.17333
1.11473
1.05712
1.00057
0.945109
0.890751
0.837497
0.785334
0.734239
0.68418
0.635119
0.587007
0.539794
0.493425
0.447839
0.402974
0.358766
0.315151
0.272062
0.229431
0.187189
0.145267
0.103593
0.0620964
0.0206928
-1.3675
-1.37441
-1.37751
-1.37145
-1.36676
-1.36512
-1.3615
-1.35497
-1.34696
-1.33851
-1.33059
-1.32461
-1.32241
-1.32617
-1.33825
-1.36107
-1.39685
-1.44724
-1.51293
-1.59314
-1.68522
-1.78428
-1.8831
-1.97235
-2.04116
-2.07819
-2.07279
-2.01639
-1.90374
-1.73361
-1.50912
-1.23738
-0.928592
-0.594911
-0.249185
0.0961511
0.429936
0.742882
1.02792
1.28031
1.49755
1.67945
1.82429
1.93755
2.02088
2.07733
2.11022
2.12286
2.11838
2.09965
2.06924
2.02943
1.98216
1.92909
1.87164
1.81096
1.74803
1.68364
1.61843
1.55292
1.48753
1.42259
1.35834
1.295
1.2327
1.17155
1.11163
1.05297
0.995609
0.939537
0.884746
0.831213
0.778903
0.727773
0.677776
0.628858
0.580959
0.534019
0.487972
0.44275
0.398285
0.354505
0.311342
0.268726
0.226584
0.184843
0.143432
0.102277
0.0613051
0.0204285
-1.40477
-1.4108
-1.41175
-1.40249
-1.39385
-1.38761
-1.3788
-1.36648
-1.35208
-1.33664
-1.32124
-1.30753
-1.29772
-1.2946
-1.30138
-1.32154
-1.3585
-1.41525
-1.49369
-1.59399
-1.71385
-1.84788
-1.98733
-2.12018
-2.23191
-2.30696
-2.33032
-2.28979
-2.17767
-1.99204
-1.73705
-1.42245
-1.06215
-0.67245
-0.270239
0.128538
0.509945
0.86277
1.17889
1.45327
1.68349
1.86896
2.01541
2.12342
2.19739
2.24175
2.26087
2.25891
2.23965
2.20646
2.16227
2.10956
2.05041
1.98657
1.91944
1.85015
1.77963
1.70859
1.63762
1.56714
1.4975
1.42895
1.36167
1.29579
1.2314
1.16855
1.10726
1.04754
0.989354
0.932685
0.877488
0.823709
0.771292
0.720176
0.670294
0.621578
0.573954
0.527351
0.481692
0.436903
0.392906
0.349626
0.306988
0.264917
0.223336
0.182169
0.141342
0.100779
0.0604042
0.0201277
-1.44287
-1.44819
-1.44739
-1.4354
-1.42319
-1.41254
-1.39847
-1.37997
-1.35841
-1.33478
-1.31021
-1.28652
-1.26635
-1.25318
-1.25122
-1.26531
-1.30057
-1.36186
-1.45303
-1.57587
-1.72903
-1.90695
-2.09913
-2.29012
-2.46034
-2.58819
-2.6523
-2.63508
-2.52526
-2.31983
-2.02461
-1.6533
-1.22531
-0.762843
-0.288285
0.177814
0.618018
1.01883
1.37107
1.66981
1.91308
2.10283
2.24493
2.34325
2.40346
2.43138
2.43261
2.41227
2.37488
2.32431
2.26384
2.19614
2.1234
2.04736
1.9694
1.89059
1.81175
1.7335
1.65632
1.58054
1.50639
1.43405
1.3636
1.2951
1.22857
1.16399
1.10133
1.04055
0.981585
0.924362
0.868807
0.814841
0.762381
0.711345
0.661649
0.613206
0.56593
0.519738
0.474544
0.430262
0.38681
0.344106
0.302068
0.260618
0.219673
0.179157
0.13899
0.0990937
0.0593906
0.0197892
-1.48284
-1.48758
-1.48533
-1.47102
-1.45559
-1.44077
-1.42143
-1.39644
-1.36698
-1.3339
-1.29826
-1.26198
-1.22802
-1.20058
-1.18509
-1.18805
-1.21683
-1.27897
-1.38124
-1.52821
-1.72051
-1.95304
-2.2136
-2.48237
-2.73286
-2.93443
-3.0566
-3.07361
-2.96879
-2.73756
-2.38838
-1.94112
-1.42343
-0.865998
-0.298626
0.252185
0.76466
1.22262
1.61589
1.94071
2.19352
2.38465
2.51804
2.60112
2.64177
2.64769
2.62593
2.5827
2.5233
2.4521
2.37266
2.2878
2.19972
2.1101
2.02024
1.93107
1.84328
1.75736
1.67363
1.5923
1.51349
1.43725
1.36358
1.29245
1.22378
1.15751
1.09354
1.03176
0.972073
0.914369
0.858536
0.804464
0.752045
0.701175
0.651749
0.603665
0.556824
0.511127
0.466481
0.422791
0.379966
0.337919
0.296563
0.255812
0.215584
0.175796
0.136366
0.0972147
0.0582609
0.0194121
-1.52552
-1.52983
-1.52644
-1.51021
-1.49201
-1.47336
-1.44893
-1.4173
-1.37933
-1.33559
-1.2869
-1.2351
-1.18316
-1.13609
-1.10057
-1.08513
-1.09998
-1.15639
-1.2655
-1.43632
-1.67324
-1.97301
-2.32213
-2.69537
-3.05656
-3.36222
-3.5678
-3.63518
-3.53943
-3.27366
-2.85062
-2.30005
-1.66233
-0.980346
-0.293725
0.36357
0.964505
1.48979
1.92764
2.27383
2.53814
2.7239
2.84131
2.90135
2.91481
2.8917
2.84075
2.76936
2.68357
2.5882
2.48696
2.38272
2.27759
2.17312
2.0704
1.97019
1.87297
1.77903
1.68855
1.60155
1.51803
1.43789
1.36103
1.28732
1.2166
1.14873
1.08354
1.02087
0.960579
0.902504
0.846502
0.792433
0.740163
0.689563
0.640509
0.592884
0.546573
0.501467
0.457461
0.414453
0.372344
0.33104
0.290451
0.250485
0.211055
0.172076
0.133464
0.0951371
0.0570121
0.0189952
-1.57157
-1.57562
-1.57146
-1.55385
-1.53347
-1.51159
-1.48252
-1.44442
-1.39764
-1.34224
-1.27861
-1.20828
-1.13343
-1.06009
-0.996059
-0.952072
-0.941868
-0.981693
-1.08897
-1.27981
-1.56525
-1.94651
-2.41006
-2.92437
-3.43983
-3.89379
-4.22031
-4.36215
-4.28153
-3.96794
-3.44127
-2.74755
-1.94755
-1.10163
-0.261759
0.529136
1.2379
1.84219
2.32672
2.69637
2.961
3.13127
3.22186
3.24813
3.22449
3.16361
3.0761
2.97051
2.85352
2.73022
2.60433
2.47858
2.35485
2.23442
2.11808
2.00633
1.89937
1.79727
1.69998
1.60734
1.51917
1.43525
1.35534
1.2792
1.20659
1.13727
1.07102
1.00762
0.946863
0.888562
0.832533
0.778602
0.72661
0.676404
0.627842
0.580789
0.535118
0.490708
0.447444
0.405214
0.363916
0.323448
0.283714
0.244619
0.206073
0.167988
0.130277
0.0928564
0.0556418
0.0185379
-1.62144
-1.62545
-1.62101
-1.60272
-1.58105
-1.55687
-1.52405
-1.48013
-1.42476
-1.35716
-1.277
-1.18577
-1.08221
-0.974776
-0.871579
-0.785424
-0.734087
-0.740221
-0.83011
-1.03074
-1.36459
-1.84207
-2.45287
-3.15876
-3.89148
-4.55936
-5.06328
-5.31612
-5.25973
-4.87739
-4.20092
-3.30433
-2.2828
-1.22111
-0.184682
0.773278
1.61224
2.30974
2.83712
3.22391
3.4778
3.61812
3.66674
3.64495
3.57157
3.46233
3.32969
3.1832
3.02992
2.8749
2.72164
2.57248
2.42887
2.29165
2.16122
2.03768
1.92093
1.81072
1.70676
1.60867
1.51607
1.4286
1.34588
1.26755
1.19328
1.12274
1.05564
0.991712
0.930693
0.87235
0.816464
0.762833
0.71127
0.661601
0.613666
0.567313
0.522404
0.478804
0.43639
0.395045
0.354657
0.315121
0.276335
0.238202
0.200628
0.163524
0.126799
0.0903692
0.0541479
0.0180395
-1.67529
-1.67957
-1.67549
-1.65749
-1.63573
-1.61068
-1.57559
-1.52726
-1.46431
-1.38472
-1.28646
-1.16812
-1.03482
-0.885225
-0.730118
-0.584174
-0.469306
-0.415864
-0.462142
-0.651356
-1.02495
-1.61118
-2.40985
-3.37752
-4.42013
-5.40081
-6.16845
-6.58873
-6.5711
-6.08646
-5.18569
-3.99284
-2.66661
-1.32324
-0.035636
1.1306
2.12167
2.90007
3.4906
3.88317
4.10762
4.19656
4.18227
4.09369
3.9549
3.78477
3.5974
3.4029
3.20822
3.01795
2.83496
2.66089
2.49653
2.34211
2.19748
2.06226
1.93594
1.81794
1.70766
1.60449
1.50786
1.41721
1.33203
1.25185
1.17623
1.10477
1.0371
0.972896
0.911848
0.853681
0.79814
0.744996
0.694036
0.645066
0.597907
0.552395
0.508378
0.465713
0.424268
0.383918
0.344546
0.306043
0.268303
0.231225
0.194714
0.158679
0.123027
0.0876729
0.0525291
0.0174995
-1.73296
-1.73789
-1.73499
-1.71852
-1.69833
-1.67441
-1.63935
-1.58901
-1.52078
-1.43108
-1.3161
-1.1732
-1.00342
-0.801201
-0.579587
-0.352119
-0.143737
0.00698014
0.0464842
-0.0917928
-0.479883
-1.17904
-2.21366
-3.54127
-5.03296
-6.47981
-7.64382
-8.32005
-8.36558
-7.72258
-6.47036
-4.82741
-3.08437
-1.3831
0.225163
1.65409
2.82796
3.71963
4.33869
4.70844
4.87212
4.8783
4.77258
4.5933
4.37023
4.12503
3.8727
3.62309
3.38232
3.15386
2.93945
2.73964
2.55429
2.3828
2.22434
2.07794
1.94263
1.81744
1.70144
1.59378
1.49365
1.40034
1.31318
1.23158
1.15502
1.083
1.0151
0.950922
0.890122
0.832383
0.77742
0.724974
0.674811
0.626718
0.5805
0.535982
0.492999
0.451402
0.41105
0.371812
0.333568
0.296202
0.259607
0.223681
0.188326
0.15345
0.118959
0.0847659
0.0507843
0.0169177
-1.79383
-1.79987
-1.79916
-1.78579
-1.7693
-1.74922
-1.7174
-1.6687
-1.59907
-1.50296
-1.37391
-1.2055
-0.991419
-0.736423
-0.435043
-0.101344
0.238585
0.539123
0.729426
0.711153
0.364659
-0.430543
-1.75274
-3.57817
-5.73269
-7.88472
-9.65472
-10.7342
-10.8976
-10.0176
-8.18483
-5.80023
-3.50597
-1.37694
0.647136
2.41065
3.79909
4.80255
5.43058
5.73679
5.79295
5.67205
5.43731
5.13787
4.80877
4.47329
4.14591
3.83489
3.54437
3.27589
3.02941
2.80399
2.59822
2.41049
2.23913
2.08254
1.93921
1.80774
1.68689
1.57552
1.47262
1.3773
1.28876
1.20629
1.12926
1.05712
0.989367
0.925571
0.865336
0.80831
0.754181
0.702667
0.653513
0.606491
0.561393
0.518032
0.476236
0.435846
0.396716
0.358713
0.32171
0.28559
0.250243
0.215566
0.181461
0.147835
0.114593
0.081648
0.0489136
0.016294
-1.85675
-1.86444
-1.86712
-1.85872
-1.84855
-1.83572
-1.81141
-1.76947
-1.70431
-1.60819
-1.47154
-1.28385
-1.03451
-0.715521
-0.322873
0.142538
0.658854
1.17848
1.61505
1.83179
1.63834
0.810877
-0.841562
-3.35867
-6.51728
-9.76073
-12.4582
-14.1823
-14.5845
-13.2937
-10.4746
-6.76644
-3.83544
-1.28648
1.31955
3.52472
5.15455
6.24676
6.83574
7.01106
6.88959
6.58004
6.16812
5.71378
5.25522
4.81468
4.40361
4.02671
3.68469
3.37608
3.09839
2.84872
2.62412
2.42178
2.23914
2.07386
1.9239
1.78742
1.66284
1.54878
1.44401
1.34748
1.25826
1.17554
1.0986
1.02683
0.95968
0.896657
0.837337
0.78134
0.728327
0.677998
0.630082
0.584338
0.540548
0.498517
0.458065
0.419028
0.381257
0.344613
0.308968
0.274204
0.240209
0.206881
0.174121
0.141835
0.109931
0.07832
0.0469173
0.0156285
-1.91994
-1.92989
-1.93727
-1.93598
-1.93518
-1.93369
-1.9222
-1.89368
-1.84114
-1.75457
-1.62098
-1.42482
-1.14834
-0.772785
-0.280983
0.334531
1.07326
1.89577
2.71038
3.34381
3.51125
2.8133
0.829338
-2.64695
-7.3728
-12.3449
-16.4723
-19.3068
-20.4093
-19.0677
-13.8971
-7.34881
-3.98077
-1.32366
2.3088
5.13334
7.00473
8.16289
8.63655
8.57539
8.17278
7.59148
6.94347
6.29614
5.68558
5.12804
4.62814
4.18426
3.79191
3.44549
3.1394
2.86837
2.62772
2.41336
2.22176
2.04986
1.89507
1.75518
1.62827
1.51273
1.40716
1.31034
1.22126
1.139
1.06278
0.991934
0.925859
0.864038
0.806013
0.751381
0.699787
0.650912
0.604477
0.560229
0.517945
0.477422
0.438478
0.400944
0.364669
0.329512
0.295345
0.262047
0.229509
0.197629
0.166309
0.135455
0.104975
0.074784
0.0447969
0.0149218
-1.98092
-1.99376
-2.00726
-2.01536
-2.02724
-2.04171
-2.04923
-2.04227
-2.0128
-1.94887
-1.83419
-1.64777
-1.36329
-0.949154
-0.369993
0.407291
1.39963
2.6116
3.96888
5.28678
6.18385
5.97504
3.76915
-1.02845
-8.30044
-15.9758
-22.3969
-27.0896
-29.0018
-26.7587
-18.5141
-10.5563
-4.11587
-1.04202
4.24816
7.60997
9.53416
10.7096
10.9398
10.4701
9.63398
8.67243
7.72126
6.84439
6.06501
5.38528
4.79761
4.29085
3.85343
3.47467
3.14532
2.85759
2.60499
2.38215
2.18462
2.0087
1.85133
1.70992
1.58232
1.4667
1.36152
1.26547
1.17742
1.0964
1.02159
0.952256
0.887781
0.827619
0.771293
0.718383
0.668522
0.621384
0.57668
0.534155
0.493579
0.454749
0.417479
0.381601
0.346961
0.313421
0.28085
0.24913
0.218154
0.18782
0.158033
0.1287
0.0997316
0.0710438
0.0425547
0.0141746
-2.03649
-2.05283
-2.0738
-2.09355
-2.12151
-2.15677
-2.19005
-2.21387
-2.21991
-2.19516
-2.12088
-1.9713
-1.7115
-1.29536
-0.664559
0.249426
1.51402
3.16511
5.23233
7.58279
9.82471
10.8778
8.82489
2.23801
-9.56569
-21.4876
-29.0758
-38.7435
-47.0458
-50.2108
-27.6323
-11.1932
-17.4163
-12.0371
5.72583
11.2761
12.948
14.1376
13.8963
12.7195
11.2224
9.74817
8.42903
7.29796
6.34656
5.5516
4.88683
4.32842
3.8564
3.45442
3.10955
2.81159
2.55241
2.32555
2.1258
1.94896
1.79158
1.65082
1.52435
1.41021
1.30675
1.21258
1.12654
1.0476
0.974904
0.907715
0.845387
0.787361
0.733151
0.682332
0.634531
0.589418
0.546703
0.50613
0.467469
0.430517
0.395089
0.361018
0.328154
0.296357
0.2655
0.235469
0.206157
0.177467
0.149305
0.12158
0.0942073
0.067105
0.040194
0.013388
-2.08276
-2.10311
-2.13274
-2.16615
-2.2133
-2.27397
-2.3397
-2.40391
-2.45908
-2.49262
-2.48525
-2.40867
-2.22153
-1.86446
-1.25435
-0.279766
1.19765
3.32125
6.14528
9.86036
14.3775
18.2885
17.3065
8.47096
-11.6139
-33.5814
-57.7695
-90.4397
-94.1366
-103.134
-117.554
-111.745
-87.9366
-49.2301
-14.228
8.6241
15.1931
18.4264
17.5463
15.2631
12.7952
10.6775
8.95457
7.57469
6.47269
5.58794
4.86963
4.27947
3.78917
3.37688
3.02673
2.72665
2.46739
2.24174
2.04402
1.8697
1.71516
1.57741
1.45404
1.34301
1.24266
1.15157
1.06853
0.992536
0.92271
0.858307
0.798684
0.743282
0.691614
0.643259
0.597847
0.55505
0.514583
0.476191
0.439651
0.404761
0.371341
0.339228
0.308276
0.278349
0.249323
0.221088
0.193541
0.166588
0.140139
0.114108
0.0884124
0.0629747
0.0377191
0.0125634
-2.11521
-2.13993
-2.17906
-2.22764
-2.29642
-2.38632
-2.49036
-2.60382
-2.72143
-2.83314
-2.92208
-2.96155
-2.90932
-2.69928
-2.22928
-1.34542
0.174961
2.62858
6.32017
11.8081
19.4475
27.4114
29.0207
16.7284
-15.9733
-48.1353
-87.2836
-167.612
-199.577
-210.945
-233.925
-236.254
-181.832
-112.734
-42.8132
1.5289
14.2393
22.4305
21.7012
17.7317
13.9913
11.2053
9.13572
7.57671
6.38575
5.45844
4.72318
4.12988
3.64346
3.23694
2.89361
2.60073
2.34864
2.1299
1.93875
1.77062
1.62189
1.48959
1.37134
1.26513
1.16931
1.08248
1.00348
0.931297
0.865086
0.804116
0.747756
0.695461
0.64676
0.601241
0.558543
0.51835
0.480384
0.4444
0.410182
0.377534
0.346285
0.316278
0.287372
0.259435
0.232352
0.206016
0.180331
0.155207
0.130557
0.1063
0.0823596
0.0586618
0.0351353
0.0117026
-2.1289
-2.15811
-2.20709
-2.27155
-2.36328
-2.48475
-2.63112
-2.80053
-2.99155
-3.19909
-3.4126
-3.61289
-3.76595
-3.81248
-3.65056
-3.10679
-1.88923
0.48099
4.04284
11.0787
21.4311
33.3018
37.0134
20.3817
-39.6555
-90.6477
-165.398
-214.93
-244.155
-261.518
-260.209
-252.6
-190.198
-103.392
-36.6473
-12.9256
5.69797
21.8155
24.7694
19.1636
14.3831
11.0379
8.78043
7.18951
6.01974
5.12956
4.43208
3.87206
3.41344
3.03303
2.70968
2.43379
2.19637
1.99038
1.81038
1.6521
1.51213
1.38771
1.27657
1.17683
1.08694
1.00556
0.931589
0.864077
0.802215
0.745308
0.692757
0.644044
0.598721
0.556397
0.51673
0.479419
0.444201
0.410844
0.379142
0.348911
0.319989
0.292228
0.265494
0.239665
0.214631
0.190294
0.166562
0.143351
0.120581
0.0981757
0.0760636
0.0541769
0.0324488
0.0108077
-2.11875
-2.15227
-2.2108
-2.29079
-2.40528
-2.55855
-2.74839
-2.97666
-3.24718
-3.5622
-3.92145
-4.32011
-4.74402
-5.16077
-5.50325
-5.63912
-5.3143
-4.04436
-1.80681
3.92452
11.1534
13.6115
-3.91809
-27.2841
-74.716
-147.171
-194.974
-234.486
-218.748
-198.292
-217.766
-236.19
-196.16
-73.916
-29.4782
-46.512
-35.3049
2.96327
17.5308
15.97
12.3359
9.56943
7.68291
6.34919
5.36043
4.60099
3.99974
3.51145
3.107
2.76656
2.47731
2.22807
2.01251
1.82476
1.66021
1.51521
1.38679
1.27252
1.17038
1.07869
0.996033
0.92122
0.853232
0.791201
0.734383
0.682138
0.633913
0.589232
0.547679
0.508893
0.472556
0.438392
0.406156
0.375632
0.34663
0.31898
0.292532
0.267149
0.242708
0.219095
0.196212
0.173966
0.152273
0.131055
0.11024
0.0897571
0.0695419
0.0495321
0.0296669
0.00988094
-2.07982
-2.11714
-2.18418
-2.27814
-2.41335
-2.59601
-2.82677
-3.11162
-3.46046
-3.88446
-4.39662
-5.01215
-5.74756
-6.61829
-7.63351
-8.7858
-10.0348
-11.2996
-12.5719
-14.7574
-29.5383
-103.141
-183.455
-166.255
-103.993
-100.715
-178.021
-217.481
-186.089
-167.229
-178.666
-187.055
-177.263
-118.345
-116.365
-123.507
-90.0511
-25.0047
4.06399
9.52405
8.52577
7.10995
5.99327
5.13947
4.46117
3.90929
3.45168
3.06544
2.73552
2.45077
2.20301
1.98837
1.8007
1.63586
1.49046
1.36172
1.24728
1.14518
1.05372
0.971489
0.897277
0.830047
0.76891
0.713105
0.661972
0.614941
0.571521
0.531286
0.493866
0.458935
0.426208
0.395435
0.366396
0.338897
0.312765
0.287848
0.26401
0.241128
0.21909
0.197795
0.177154
0.157084
0.137508
0.118357
0.0995648
0.08107
0.062814
0.0447415
0.0267979
0.00892527
-2.00776
-2.04801
-2.12174
-2.22684
-2.37879
-2.58559
-2.85055
-3.18363
-3.6007
-4.12198
-4.77441
-5.59514
-6.63615
-7.97206
-9.71453
-12.0425
-15.2724
-20.0616
-27.9638
-43.3903
-83.1217
-232.494
-390.085
-335.368
-145.93
-61.9335
-124.571
-176.203
-153.466
-137.391
-148.979
-150.482
-148.539
-180.597
-214.75
-229.584
-148.866
-48.2152
-1.64881
3.75488
4.20362
4.20087
4.00301
3.73069
3.4271
3.12037
2.82946
2.56093
2.31712
2.09271
1.89639
1.72169
1.56606
1.4275
1.30405
1.19391
1.09544
1.00717
0.927824
0.856266
0.79153
0.73277
0.679249
0.63033
0.585455
0.544127
0.505938
0.470523
0.437561
0.40677
0.377903
0.350742
0.325095
0.300793
0.277685
0.255638
0.234533
0.214262
0.194726
0.17584
0.157524
0.139706
0.122319
0.105299
0.0885918
0.0721431
0.0559021
0.0398207
0.0238514
0.00794383
-1.89908
-1.94107
-2.01901
-2.13127
-2.29421
-2.51719
-2.80562
-3.17258
-3.63873
-4.23165
-4.98979
-5.96877
-7.25101
-8.96295
-11.3078
-14.6356
-19.5864
-27.6061
-41.0516
-71.42
-121.56
-267.935
-417.718
-389.299
-254.256
-139.958
-130.851
-133.212
-119.219
-108.77
-112.761
-120.944
-137.485
-238.838
-315.26
-310.579
-177.607
-58.2816
-15.3559
-3.41541
-0.626006
1.23241
2.0261
2.33517
2.38962
2.31345
2.18184
2.02683
1.86552
1.71353
1.56952
1.43624
1.31448
1.20408
1.10436
1.01445
0.93339
0.860247
0.794137
0.734217
0.679801
0.630246
0.58498
0.543504
0.505383
0.470167
0.437574
0.407301
0.379079
0.352676
0.327887
0.30453
0.282445
0.261491
0.241541
0.222484
0.204219
0.186656
0.169712
0.153314
0.137396
0.121897
0.106762
0.0919282
0.0773598
0.0630079
0.0488305
0.034787
0.0208376
0.00694003
-1.7514
-1.79388
-1.87303
-1.98759
-2.15437
-2.38348
-2.68148
-3.06316
-3.55183
-4.17914
-4.98988
-6.04963
-7.45691
-9.36463
-12.0193
-15.8452
-21.5823
-31.0159
-45.668
-78.6725
-121.361
-224.097
-353.651
-421.698
-383.951
-290.632
-192.023
-109.916
-76.606
-82.6661
-91.0496
-100.718
-125.652
-215.397
-297.871
-273.235
-160.801
-58.9437
-22.7955
-8.62781
-3.61002
-0.888728
0.478087
1.14319
1.44936
1.56255
1.5629
1.506
1.42189
1.3282
1.23256
1.13959
1.05173
0.970072
0.894925
0.826166
0.763439
0.706291
0.654259
0.606657
0.563199
0.523416
0.486901
0.453287
0.422243
0.393543
0.366876
0.342018
0.318774
0.296965
0.276436
0.257043
0.238663
0.221183
0.204505
0.188539
0.173205
0.158431
0.144152
0.130309
0.116849
0.103721
0.0908772
0.0782904
0.0659118
0.053698
0.041625
0.0296587
0.0177674
0.00591754
-1.56419
-1.60563
-1.68278
-1.79428
-1.95699
-2.18101
-2.47291
-2.84748
-3.328
-3.94607
-4.74616
-5.79309
-7.18283
-9.06222
-11.6618
-15.3477
-20.8275
-28.9917
-42.4636
-62.3461
-92.6288
-142.614
-304.203
-470.09
-520.834
-424.19
-249.922
-108.606
-72.6409
-75.8239
-77.5157
-71.682
-101.83
-159.383
-201.499
-171.619
-110.664
-52.5372
-21.9541
-9.80901
-4.79701
-1.86056
-0.391699
0.361305
0.746953
0.933065
1.00569
1.01474
0.989026
0.94543
0.893294
0.838068
0.782922
0.729647
0.679163
0.631885
0.587922
0.547206
0.509546
0.474921
0.442914
0.413321
0.385929
0.360525
0.336912
0.314922
0.294378
0.275127
0.257034
0.239977
0.223846
0.208544
0.19398
0.180074
0.166757
0.153962
0.141632
0.129712
0.118157
0.106923
0.0959691
0.0852596
0.0747606
0.0644444
0.0542785
0.0442474
0.0343127
0.0244553
0.0146525
0.0048802
-1.33844
-1.37735
-1.44919
-1.55231
-1.70306
-1.91079
-2.18091
-2.52652
-2.96831
-3.53372
-4.26065
-5.20323
-6.43899
-8.07999
-10.2946
-13.3284
-17.6233
-23.5203
-32.9904
-46.5278
-73.0219
-97.507
-284.993
-497.541
-584.984
-438.225
-255.215
-134.76
-97.2659
-89.999
-83.3293
-72.3939
-68.3678
-94.4808
-120.902
-123.372
-90.4074
-44.8828
-14.7563
-7.15811
-3.44321
-1.56067
-0.583098
-0.0492528
0.252471
0.42336
0.515909
0.560376
0.575167
0.571796
0.557429
0.536634
0.512338
0.486493
0.460234
0.434304
0.409173
0.3851
0.362216
0.340607
0.320227
0.301035
0.282974
0.265972
0.249957
0.234855
0.220586
0.207077
0.194256
0.18206
0.170428
0.159304
0.148635
0.138377
0.128485
0.11892
0.109645
0.100629
0.0918413
0.0832551
0.0748449
0.0665872
0.0584612
0.0504489
0.0425321
0.0346957
0.026923
0.0191971
0.0115051
0.00383208
-1.07681
-1.11185
-1.17541
-1.26531
-1.39695
-1.57831
-1.81271
-2.11014
-2.48664
-2.96262
-3.5652
-4.33088
-5.30969
-6.5683
-8.19705
-10.3106
-13.0699
-16.5942
-21.0126
-28.5217
-40.2633
-71.8966
-235.5
-417.713
-434.158
-336.781
-222.783
-163.225
-130.885
-118.419
-111.798
-78.2629
-54.4345
-40.6921
-53.362
-63.3747
-45.7303
-18.7038
-4.0313
-1.19193
-0.795809
-0.57873
-0.396612
-0.242543
-0.112249
-0.00631119
0.0757996
0.136715
0.180052
0.209465
0.228157
0.238793
0.243366
0.243802
0.240992
0.235949
0.229385
0.221814
0.213614
0.205064
0.196354
0.18762
0.178958
0.170433
0.16209
0.153953
0.146034
0.138335
0.130853
0.123578
0.1165
0.109605
0.10288
0.0963112
0.0898842
0.0835848
0.0773996
0.0713165
0.0653241
0.0594112
0.0535671
0.0477821
0.0420483
0.0363586
0.030706
0.025084
0.0194856
0.0139053
0.00833774
0.00277738
-0.783477
-0.813541
-0.866405
-0.939133
-1.04593
-1.19294
-1.38078
-1.61551
-1.9073
-2.26803
-2.71188
-3.25609
-3.92053
-4.72659
-5.69352
-6.82653
-8.12734
-9.43262
-10.967
-11.9968
-13.1121
-59.5945
-174.18
-233.893
-227.538
-174.957
-158.506
-165.625
-147.815
-161.673
-197.302
-164.984
-81.3173
-41.2913
-18.8935
-4.90391
-1.0868
6.15081
6.03899
3.24667
1.19805
0.177651
-0.282674
-0.446594
-0.463921
-0.415867
-0.344356
-0.269832
-0.201359
-0.142271
-0.0931215
-0.0529765
-0.0208257
0.00430225
0.0239558
0.0391039
0.0505991
0.0591552
0.0653573
0.0696812
0.0725058
0.0741329
0.0748043
0.0747138
0.074016
0.0728333
0.0712616
0.0693774
0.0672406
0.0648983
0.0623869
0.0597356
0.0569679
0.0541028
0.0511543
0.0481337
0.0450506
0.0419129
0.0387269
0.0354976
0.0322289
0.0289253
0.0255914
0.0222316
0.0188493
0.0154481
0.0120307
0.00860166
0.00516327
0.00172036
-0.463883
-0.488206
-0.528659
-0.58148
-0.659522
-0.76692
-0.901349
-1.06466
-1.26099
-1.49348
-1.76381
-2.0711
-2.409
-2.76088
-3.09187
-3.33427
-3.38941
-3.06678
-2.36024
-1.1941
-0.621135
-35.8018
-109.316
-115.389
-120.777
-121.502
-194.205
-241.668
-213.033
-257.398
-284.506
-321.773
-201.998
-143.66
-78.4213
-11.2966
15.1682
15.7319
9.26234
4.22519
1.48977
0.130234
-0.565471
-0.837541
-0.89732
-0.855795
-0.770671
-0.671891
-0.574222
-0.484487
-0.405232
-0.336991
-0.278859
-0.22982
-0.188623
-0.154117
-0.125265
-0.101162
-0.081027
-0.0642045
-0.0501469
-0.0384005
-0.0285886
-0.0203986
-0.0135726
-0.00789775
-0.00319813
0.000672302
0.00383404
0.00638641
0.00841214
0.0099811
0.0111524
0.0119763
0.0124947
0.0127439
0.0127555
0.0125571
0.0121724
0.0116218
0.0109244
0.0100984
0.00916077
0.0081272
0.00701171
0.00582778
0.00458831
0.00330847
0.00199445
0.000665244
-0.124377
-0.14255
-0.169687
-0.201202
-0.248613
-0.314091
-0.392486
-0.481734
-0.580472
-0.684261
-0.784285
-0.865235
-0.901142
-0.848642
-0.637206
-0.154131
0.770421
2.3931
5.14236
6.14589
16.9667
-9.82583
-57.3438
-52.3981
-47.7565
-150.202
-310.286
-350.426
-344.455
-432.047
-429.997
-365.808
-284.964
-223.947
-142.982
-41.0653
-1.973
5.4002
3.63458
1.33947
-0.144659
-1.01259
-1.36319
-1.4749
-1.44691
-1.34625
-1.21416
-1.07462
-0.940306
-0.817177
-0.707419
-0.611302
-0.527982
-0.456207
-0.394575
-0.341725
-0.29641
-0.257526
-0.224108
-0.19533
-0.170492
-0.149002
-0.130361
-0.114147
-0.10001
-0.0876534
-0.0768275
-0.067323
-0.0589633
-0.0516001
-0.0451072
-0.0393766
-0.0343159
-0.0298455
-0.0258965
-0.0224087
-0.0193295
-0.0166126
-0.0142178
-0.0121089
-0.0102524
-0.00861696
-0.00717331
-0.00589493
-0.00475736
-0.00373722
-0.00281255
-0.00196178
-0.00115739
-0.000383917
0.228205
0.216231
0.202505
0.192364
0.175489
0.151435
0.127732
0.109728
0.103136
0.118137
0.171014
0.286593
0.50275
0.877085
1.49651
2.49126
4.05364
6.47647
10.3827
13.2853
25.8227
22.9517
-2.8277
-15.0086
-22.3002
-167.994
-295.044
-349.018
-417.734
-503.611
-469.459
-308.633
-252.085
-217.101
-142.209
-59.4211
-20.8941
-7.85093
-3.97971
-2.91424
-2.64813
-2.55863
-2.43686
-2.27316
-2.07935
-1.87267
-1.66774
-1.47389
-1.29632
-1.13711
-0.996356
-0.873082
-0.765735
-0.672566
-0.591818
-0.521843
-0.461156
-0.408442
-0.362559
-0.322523
-0.287495
-0.256758
-0.229705
-0.205821
-0.184668
-0.165878
-0.149135
-0.134173
-0.120765
-0.108717
-0.0978651
-0.0880653
-0.0791945
-0.0711461
-0.0638262
-0.0571523
-0.0510516