/*--------------------------------*- C++ -*----------------------------------*\
| =========                 |                                                 |
| \\      /  F ield         | OpenFOAM: The Open Source CFD Toolbox           |
|  \\    /   O peration     | Version:  v1806                                 |
|   \\  /    A nd           | Web:      www.OpenFOAM.com                      |
|    \\/     M anipulation  |                                                 |
\*---------------------------------------------------------------------------*/
FoamFile
{
    version     2.0;
    format      ascii;
    class       surfaceScalarField;
    location    "0.07";
    object      phi;
}
// * * * * * * * * * * * * * * * * * * * * * * * * * * * * * * * * * * * * * //

dimensions      [0 3 -1 0 0 0 0];
oriented        oriented;


internalField   nonuniform List<scalar> 
10650
(
0.00284604
0.000487297
0.00231643
0.000529608
0.00195272
0.000363713
0.00174065
0.000212078
0.001629
0.000111651
0.00156937
5.96258e-05
0.00153547
3.38957e-05
0.00151519
2.02873e-05
0.0015027
1.24914e-05
0.00149508
7.61249e-06
0.00149087
4.21369e-06
0.00148923
1.64532e-06
0.00148962
-3.92873e-07
0.00149165
-2.03474e-06
0.00149493
-3.27244e-06
0.00149907
-4.14637e-06
0.00150372
-4.64353e-06
0.00150846
-4.7463e-06
0.00151289
-4.4287e-06
0.00151658
-3.68595e-06
0.00151911
-2.52743e-06
0.00152009
-9.81976e-07
0.00151925
8.38609e-07
0.00151629
2.95328e-06
0.00151109
5.201e-06
0.00150367
7.42378e-06
0.00149416
9.51348e-06
0.00148282
1.13398e-05
0.00147003
1.27897e-05
0.00145625
1.37748e-05
0.00144201
1.42415e-05
0.00142783
1.41768e-05
0.00141423
1.36066e-05
0.00140164
1.25887e-05
0.00139043
1.12065e-05
0.00138087
9.56129e-06
0.00137311
7.7596e-06
0.00136721
5.90256e-06
0.00136313
4.07948e-06
0.00136076
2.36541e-06
0.00135994
8.16321e-07
0.00136047
-5.26765e-07
0.00136205
-1.57529e-06
0.00136458
-2.52893e-06
0.0013678
-3.2235e-06
0.00137145
-3.65404e-06
0.00137544
-3.99277e-06
0.00137955
-4.10711e-06
0.00138371
-4.1627e-06
0.00138778
-4.06849e-06
0.00139172
-3.93508e-06
0.00139545
-3.73317e-06
0.00139894
-3.49289e-06
0.00140218
-3.23249e-06
0.00140514
-2.96655e-06
0.00140784
-2.69817e-06
0.00141027
-2.43458e-06
0.00141245
-2.18057e-06
0.00141439
-1.93932e-06
0.00141611
-1.71527e-06
0.00141762
-1.51084e-06
0.00141894
-1.3237e-06
0.0014201
-1.15335e-06
0.0014211
-9.99727e-07
0.00142196
-8.62188e-07
0.0014227
-7.39362e-07
0.00142333
-6.30116e-07
0.00142386
-5.34217e-07
0.00142431
-4.50432e-07
0.00142469
-3.77004e-07
0.001425
-3.13517e-07
0.00142526
-2.59193e-07
0.00142547
-2.11711e-07
0.00142564
-1.70216e-07
0.00142578
-1.35379e-07
0.00142588
-1.0675e-07
0.00142596
-8.26207e-08
0.00142603
-6.24415e-08
0.00142608
-4.66988e-08
0.00142611
-3.4594e-08
0.00142613
-2.45281e-08
0.00142615
-1.61104e-08
0.00142616
-1.01318e-08
0.00142617
-6.67937e-09
0.00142617
-4.8555e-09
0.00142618
-4.29101e-09
0.00142618
-4.58836e-09
0.00142619
-7.57528e-09
0.0014262
-9.32919e-09
-4.71449e-09
0.00347289
0.000347738
0.00346592
0.000536573
0.00337321
0.00045642
0.00326973
0.00031556
0.00318284
0.000198543
0.00311928
0.000123182
0.00307471
7.84666e-05
0.00304369
5.13159e-05
0.00302225
3.3927e-05
0.00300779
2.20754e-05
0.00299857
1.34368e-05
0.00299342
6.79063e-06
0.00299154
1.48776e-06
0.00299225
-2.7464e-06
0.002995
-6.02215e-06
0.00299929
-8.43791e-06
0.00300461
-9.96353e-06
0.00301044
-1.05707e-05
0.00301622
-1.02086e-05
0.0030214
-8.86823e-06
0.00302544
-6.56606e-06
0.00302782
-3.36492e-06
0.00302806
5.99334e-07
0.00302585
5.16428e-06
0.00302097
1.00841e-05
0.00301331
1.5075e-05
0.00300299
1.9839e-05
0.00299025
2.40737e-05
0.00297552
2.75231e-05
0.00295931
2.99834e-05
0.00294223
3.13221e-05
0.00292491
3.14947e-05
0.00290797
3.05461e-05
0.00289197
2.85945e-05
0.00287736
2.58165e-05
0.00286449
2.24267e-05
0.0028536
1.86545e-05
0.00284478
1.47226e-05
0.00283803
1.0829e-05
0.00283325
7.13936e-06
0.00283029
3.78056e-06
0.00282892
8.40124e-07
0.00282898
-1.63411e-06
0.00283014
-3.68595e-06
0.00283215
-5.23889e-06
0.00283487
-6.36926e-06
0.00283802
-7.14868e-06
0.0028415
-7.58657e-06
0.00284512
-7.78278e-06
0.0028488
-7.74477e-06
0.00285242
-7.56225e-06
0.00285593
-7.24333e-06
0.00285928
-6.84363e-06
0.00286244
-6.39231e-06
0.00286538
-5.909e-06
0.0028681
-5.41699e-06
0.0028706
-4.92978e-06
0.00287287
-4.45287e-06
0.00287493
-3.99831e-06
0.00287678
-3.57042e-06
0.00287845
-3.17532e-06
0.00287994
-2.81277e-06
0.00288126
-2.48132e-06
0.00288244
-2.17906e-06
0.00288348
-1.9049e-06
0.0028844
-1.65964e-06
0.00288522
-1.44117e-06
0.00288593
-1.24632e-06
0.00288655
-1.07432e-06
0.0028871
-9.23473e-07
0.00288757
-7.90965e-07
0.00288799
-6.73649e-07
0.00288835
-5.71258e-07
0.00288866
-4.82926e-07
0.00288893
-4.06301e-07
0.00288916
-3.39744e-07
0.00288937
-2.83237e-07
0.00288954
-2.35901e-07
0.00288969
-1.9595e-07
0.00288981
-1.61644e-07
0.00288992
-1.32728e-07
0.00289002
-1.09154e-07
0.0028901
-9.00442e-08
0.00289017
-7.44326e-08
0.00289022
-6.20482e-08
0.00289027
-5.3262e-08
0.00289031
-4.64575e-08
0.00289035
-4.33811e-08
0.00289038
-3.78032e-08
-2.42685e-08
0.00347056
0.000210519
0.00358973
0.0004174
0.00362971
0.000416441
0.00361544
0.00032983
0.00357799
0.00023599
0.00353798
0.000163197
0.00350375
0.000112701
0.00347689
7.81754e-05
0.00345685
5.39618e-05
0.00344263
3.62971e-05
0.00343323
2.28372e-05
0.00342782
1.21986e-05
0.00342572
3.59093e-06
0.00342636
-3.39114e-06
0.00342925
-8.91503e-06
0.00343388
-1.30672e-05
0.00343974
-1.58188e-05
0.00344626
-1.70968e-05
0.00345289
-1.68359e-05
0.003459
-1.49809e-05
0.00346399
-1.15539e-05
0.00346727
-6.64079e-06
0.0034683
-4.29242e-07
0.00346667
6.78893e-06
0.00346211
1.4644e-05
0.00345449
2.27022e-05
0.00344389
3.04382e-05
0.00343058
3.73777e-05
0.00341502
4.30829e-05
0.0033978
4.72087e-05
0.00337958
4.95341e-05
0.0033611
4.9982e-05
0.00334302
4.86181e-05
0.00332599
4.56329e-05
0.00331049
4.1313e-05
0.00329691
3.60085e-05
0.00328547
3.00906e-05
0.00327627
2.39186e-05
0.00326929
1.78093e-05
0.00326441
1.20252e-05
0.00326143
6.76425e-06
0.0032601
2.15913e-06
0.00326019
-1.72425e-06
0.00326144
-4.9339e-06
0.00326353
-7.32928e-06
0.00326629
-9.1264e-06
0.00326948
-1.03453e-05
0.00327297
-1.10723e-05
0.00327658
-1.13948e-05
0.00328022
-1.13894e-05
0.0032838
-1.1138e-05
0.00328725
-1.06969e-05
0.00329054
-1.01289e-05
0.00329362
-9.47837e-06
0.0032965
-8.78103e-06
0.00329914
-8.06477e-06
0.00330157
-7.35373e-06
0.00330378
-6.66194e-06
0.00330578
-5.99953e-06
0.00330758
-5.37594e-06
0.0033092
-4.79704e-06
0.00331066
-4.26329e-06
0.00331195
-3.7744e-06
0.0033131
-3.32998e-06
0.00331412
-2.92807e-06
0.00331503
-2.56528e-06
0.00331583
-2.24004e-06
0.00331654
-1.95174e-06
0.00331716
-1.69619e-06
0.0033177
-1.46919e-06
0.00331818
-1.26857e-06
0.0033186
-1.09261e-06
0.00331896
-9.3838e-07
0.00331928
-8.02359e-07
0.00331956
-6.83594e-07
0.0033198
-5.8153e-07
0.00332001
-4.94042e-07
0.00332019
-4.18343e-07
0.00332035
-3.53135e-07
0.00332049
-2.97788e-07
0.00332061
-2.51138e-07
0.00332071
-2.11596e-07
0.0033208
-1.78247e-07
0.00332088
-1.50796e-07
0.00332094
-1.28652e-07
0.003321
-1.10918e-07
0.00332105
-9.5583e-08
0.00332109
-8.41597e-08
0.00332113
-7.36578e-08
-5.32891e-08
0.00340863
0.00013522
0.00351429
0.000311746
0.00358089
0.000349847
0.00360398
0.000306735
0.0035992
0.000240768
0.00358234
0.000180062
0.00356293
0.000132106
0.00354526
9.58521e-05
0.00353088
6.83389e-05
0.00352019
4.69816e-05
0.0035131
2.99321e-05
0.00350931
1.59874e-05
0.00350849
4.40839e-06
0.0035103
-5.19588e-06
0.00351434
-1.2955e-05
0.00352017
-1.89056e-05
0.00352734
-2.29909e-05
0.00353531
-2.50628e-05
0.00354344
-2.49677e-05
0.00355109
-2.26278e-05
0.00355755
-1.80163e-05
0.00356215
-1.12354e-05
0.00356425
-2.52768e-06
0.00356333
7.70865e-06
0.00355903
1.89432e-05
0.00355121
3.05172e-05
0.00353995
4.17054e-05
0.00352554
5.17798e-05
0.00350854
6.00872e-05
0.00348964
6.61092e-05
0.00346965
6.95171e-05
0.00344944
7.01969e-05
0.0034298
6.82514e-05
0.00341147
6.39724e-05
0.00339499
5.77931e-05
0.00338076
5.02318e-05
0.00336902
4.18345e-05
0.00335981
3.31212e-05
0.00335308
2.45473e-05
0.00334862
1.64812e-05
0.00334619
9.19406e-06
0.00334549
2.85776e-06
0.00334621
-2.44601e-06
0.00334806
-6.77766e-06
0.00335071
-9.98846e-06
0.00335396
-1.2373e-05
0.00335758
-1.39619e-05
0.00336139
-1.48905e-05
0.00336527
-1.52736e-05
0.00336911
-1.52269e-05
0.00337283
-1.48538e-05
0.00337637
-1.4239e-05
0.0033797
-1.34616e-05
0.0033828
-1.25801e-05
0.00338566
-1.16438e-05
0.00338829
-1.06878e-05
0.00339067
-9.73991e-06
0.00339284
-8.82321e-06
0.00339479
-7.94939e-06
0.00339654
-7.1281e-06
0.00339811
-6.36543e-06
0.00339951
-5.66252e-06
0.00340075
-5.02111e-06
0.00340186
-4.43736e-06
0.00340284
-3.90849e-06
0.00340371
-3.43281e-06
0.00340447
-3.00763e-06
0.00340515
-2.62808e-06
0.00340574
-2.28922e-06
0.00340626
-1.98934e-06
0.00340672
-1.7251e-06
0.00340711
-1.49163e-06
0.00340746
-1.28562e-06
0.00340777
-1.10502e-06
0.00340803
-9.48326e-07
0.00340826
-8.12218e-07
0.00340847
-6.93856e-07
0.00340864
-5.91673e-07
0.00340879
-5.04406e-07
0.00340892
-4.29879e-07
0.00340904
-3.65803e-07
0.00340914
-3.10983e-07
0.00340922
-2.64842e-07
0.0034093
-2.26429e-07
0.00340936
-1.94219e-07
0.00340942
-1.67199e-07
0.00340947
-1.44068e-07
0.00340951
-1.25486e-07
0.00340955
-1.10271e-07
-8.26488e-08
0.00337249
9.60623e-05
0.0034446
0.000239638
0.00350427
0.000290172
0.00353777
0.000273239
0.00354949
0.000229048
0.00354816
0.00018139
0.00354086
0.000139403
0.00353193
0.000104791
0.00352368
7.65845e-05
0.00351729
5.33656e-05
0.0035133
3.39304e-05
0.00351187
1.74148e-05
0.00351303
3.2529e-06
0.00351662
-8.79189e-06
0.00352241
-1.87397e-05
0.00353012
-2.66166e-05
0.00353929
-3.21627e-05
0.00354937
-3.51472e-05
0.00355975
-3.53423e-05
0.00356965
-3.25236e-05
0.00357826
-2.66339e-05
0.00358478
-1.77465e-05
0.0035884
-6.15142e-06
0.00358847
7.63206e-06
0.00358453
2.28872e-05
0.00357634
3.87056e-05
0.003564
5.40516e-05
0.00354787
6.79048e-05
0.00352863
7.93241e-05
0.00350717
8.7568e-05
0.00348452
9.21708e-05
0.00346173
9.2983e-05
0.00343981
9.01725e-05
0.00341961
8.4178e-05
0.00340177
7.56346e-05
0.00338671
6.52859e-05
0.00337465
5.3901e-05
0.00336557
4.21994e-05
0.00335932
3.07983e-05
0.00335561
2.0186e-05
0.0033541
1.07038e-05
0.00335441
2.55381e-06
0.00335615
-4.18903e-06
0.00335891
-9.54145e-06
0.00336246
-1.35341e-05
0.00336646
-1.63787e-05
0.00337072
-1.8226e-05
0.00337507
-1.9232e-05
0.00337936
-1.95678e-05
0.00338351
-1.93776e-05
0.00338746
-1.8801e-05
0.00339115
-1.79355e-05
0.00339458
-1.68886e-05
0.00339773
-1.57317e-05
0.00340061
-1.45178e-05
0.00340322
-1.32965e-05
0.00340557
-1.20929e-05
0.00340768
-1.09382e-05
0.00340958
-9.84287e-06
0.00341127
-8.81925e-06
0.00341278
-7.87361e-06
0.00341412
-7.00313e-06
0.0034153
-6.20825e-06
0.00341635
-5.48689e-06
0.00341728
-4.8365e-06
0.0034181
-4.25159e-06
0.00341882
-3.72703e-06
0.00341945
-3.25952e-06
0.00342001
-2.84451e-06
0.00342049
-2.47641e-06
0.00342092
-2.1504e-06
0.00342129
-1.8623e-06
0.00342161
-1.60938e-06
0.00342189
-1.38774e-06
0.00342214
-1.19402e-06
0.00342235
-1.02506e-06
0.00342254
-8.78694e-07
0.0034227
-7.52458e-07
0.00342284
-6.43836e-07
0.00342296
-5.50331e-07
0.00342306
-4.70219e-07
0.00342316
-4.02244e-07
0.00342324
-3.44833e-07
0.0034233
-2.96143e-07
0.00342337
-2.54653e-07
0.00342342
-2.19652e-07
0.00342346
-1.90029e-07
0.0034235
-1.65324e-07
0.00342354
-1.4516e-07
-1.09689e-07
0.00335479
7.46024e-05
0.00340248
0.000191951
0.00344939
0.000243264
0.00348226
0.000240367
0.00350019
0.000211121
0.00350716
0.000174412
0.00350769
0.000138883
0.00350519
0.000107282
0.00350197
7.98112e-05
0.00349942
5.59097e-05
0.00349841
3.49434e-05
0.00349941
1.64123e-05
0.00350276
-9.56598e-08
0.00350839
-1.44167e-05
0.00351634
-2.66944e-05
0.00352637
-3.66469e-05
0.00353811
-4.38979e-05
0.00355101
-4.80499e-05
0.00356438
-4.87067e-05
0.00357734
-4.54895e-05
0.00358894
-3.82284e-05
0.00359813
-2.69422e-05
0.00360392
-1.19408e-05
0.00360543
6.12176e-06
0.00360201
2.6309e-05
0.00359335
4.73706e-05
0.0035795
6.78948e-05
0.00356096
8.64519e-05
0.00353857
0.000101709
0.00351351
0.000112628
0.00348712
0.000118566
0.00346076
0.000119342
0.0034357
0.000115233
0.00341298
0.000106897
0.00339336
9.52558e-05
0.00337728
8.13629e-05
0.0033649
6.62813e-05
0.00335612
5.0981e-05
0.00335064
3.62739e-05
0.00334805
2.2777e-05
0.00334786
1.08985e-05
0.00334955
8.54381e-07
0.00335269
-7.32411e-06
0.00335674
-1.35945e-05
0.00336144
-1.82349e-05
0.00336644
-2.1373e-05
0.00337153
-2.3323e-05
0.00337654
-2.42383e-05
0.00338136
-2.43869e-05
0.0033859
-2.39171e-05
0.00339012
-2.30204e-05
0.003394
-2.18196e-05
0.00339754
-2.04298e-05
0.00340074
-1.89329e-05
0.00340363
-1.74027e-05
0.00340621
-1.58784e-05
0.00340852
-1.44047e-05
0.00341057
-1.29905e-05
0.0034124
-1.16682e-05
0.00341402
-1.04373e-05
0.00341545
-9.30305e-06
0.00341671
-8.26493e-06
0.00341782
-7.32161e-06
0.0034188
-6.46839e-06
0.00341966
-5.69931e-06
0.00342042
-5.00873e-06
0.00342109
-4.3913e-06
0.00342167
-3.84139e-06
0.00342217
-3.35248e-06
0.00342262
-2.91879e-06
0.00342301
-2.53602e-06
0.00342334
-2.19883e-06
0.00342363
-1.90209e-06
0.00342389
-1.64161e-06
0.00342411
-1.41423e-06
0.0034243
-1.2166e-06
0.00342447
-1.04529e-06
0.00342461
-8.96921e-07
0.00342473
-7.68914e-07
0.00342484
-6.58824e-07
0.00342494
-5.64439e-07
0.00342502
-4.83863e-07
0.00342509
-4.15292e-07
0.00342515
-3.57136e-07
0.0034252
-3.07919e-07
0.00342525
-2.6648e-07
0.00342529
-2.31316e-07
0.00342533
-2.01614e-07
0.00342536
-1.77301e-07
-1.34223e-07
0.00334586
6.20735e-05
0.003378
0.000159813
0.00341353
0.000207735
0.00344202
0.000211872
0.00346081
0.000192332
0.00347131
0.000163914
0.00347613
0.000134062
0.00347774
0.000105672
0.00347806
7.94973e-05
0.00347846
5.55076e-05
0.00347992
3.34798e-05
0.00348313
1.321e-05
0.00348845
-5.42007e-06
0.00349627
-2.22383e-05
0.0035066
-3.7018e-05
0.00351934
-4.93959e-05
0.0035342
-5.875e-05
0.00355062
-6.44722e-05
0.00356784
-6.59243e-05
0.00358484
-6.24952e-05
0.00360044
-5.38254e-05
0.00361331
-3.98055e-05
0.00362212
-2.07551e-05
0.00362568
2.55978e-06
0.0036231
2.88907e-05
0.00361386
5.66078e-05
0.00359803
8.37306e-05
0.00357619
0.00010829
0.00354949
0.000128406
0.0035195
0.00014262
0.00348801
0.00015006
0.00345683
0.000150521
0.0034276
0.000144463
0.00340162
0.000132876
0.00337978
0.000117098
0.00336253
9.86134e-05
0.00334993
7.88761e-05
0.00334174
5.91753e-05
0.00333746
4.05542e-05
0.00333647
2.37673e-05
0.00333809
9.27741e-06
0.00334165
-2.706e-06
0.00334665
-1.23208e-05
0.00335234
-1.92938e-05
0.00335847
-2.4361e-05
0.0033647
-2.76036e-05
0.00337079
-2.94121e-05
0.00337659
-3.00407e-05
0.003382
-2.97967e-05
0.00338699
-2.89016e-05
0.00339151
-2.75416e-05
0.00339558
-2.58923e-05
0.00339922
-2.40724e-05
0.00340247
-2.21773e-05
0.00340534
-2.02796e-05
0.00340788
-1.84181e-05
0.00341012
-1.66422e-05
0.00341209
-1.49618e-05
0.00341382
-1.34022e-05
0.00341534
-1.19579e-05
0.00341668
-1.06371e-05
0.00341785
-9.43438e-06
0.00341887
-8.34515e-06
0.00341977
-7.3626e-06
0.00342055
-6.48077e-06
0.00342123
-5.69239e-06
0.00342183
-4.98807e-06
0.00342235
-4.36134e-06
0.0034228
-3.80487e-06
0.0034232
-3.3124e-06
0.00342354
-2.87774e-06
0.00342383
-2.49476e-06
0.00342409
-2.15811e-06
0.00342431
-1.86343e-06
0.0034245
-1.60625e-06
0.00342467
-1.38219e-06
0.00342481
-1.18753e-06
0.00342494
-1.01937e-06
0.00342504
-8.74866e-07
0.00342513
-7.5083e-07
0.00342521
-6.44372e-07
0.00342528
-5.53209e-07
0.00342534
-4.7558e-07
0.0034254
-4.0983e-07
0.00342544
-3.54247e-07
0.00342548
-3.07263e-07
0.00342552
-2.67264e-07
0.00342555
-2.33546e-07
0.00342558
-2.06198e-07
-1.56442e-07
0.0033409
5.45025e-05
0.00336297
0.00013775
0.00338951
0.000181195
0.0034128
0.000188577
0.00342996
0.000175175
0.00344114
0.000152731
0.00344779
0.00012742
0.00345157
0.000101886
0.00345402
7.70554e-05
0.00345635
5.31686e-05
0.00345958
3.02503e-05
0.00346449
8.30887e-06
0.00347163
-1.25692e-05
0.00348149
-3.209e-05
0.0034943
-4.98303e-05
0.00351005
-6.51512e-05
0.00352857
-7.72694e-05
0.0035493
-8.51985e-05
0.00357138
-8.80004e-05
0.00359362
-8.47387e-05
0.00361452
-7.47229e-05
0.00363237
-5.76544e-05
0.00364538
-3.37652e-05
0.00365189
-3.95568e-06
0.00365059
3.01908e-05
0.00364074
6.64602e-05
0.00362228
0.00010219
0.00359601
0.000134564
0.00356345
0.000160959
0.00352675
0.000179318
0.00348837
0.000188442
0.00345077
0.000188127
0.00341609
0.000179139
0.00338598
0.000162984
0.00336147
0.00014161
0.00334298
0.000117101
0.00333042
9.14344e-05
0.0033233
6.63031e-05
0.00332083
4.3023e-05
0.00332211
2.24869e-05
0.00332621
5.17393e-06
0.00333234
-8.83949e-06
0.00333949
-1.94658e-05
0.00334733
-2.71305e-05
0.00335521
-3.22454e-05
0.00336291
-3.53052e-05
0.00337015
-3.66485e-05
0.00337684
-3.67336e-05
0.0033829
-3.58533e-05
0.00338835
-3.43551e-05
0.00339316
-3.23541e-05
0.0033974
-3.0136e-05
0.00340113
-2.77954e-05
0.00340437
-2.54231e-05
0.00340721
-2.31144e-05
0.00340967
-2.08769e-05
0.00341181
-1.87819e-05
0.00341366
-1.68182e-05
0.00341527
-1.50141e-05
0.00341668
-1.33598e-05
0.00341789
-1.18548e-05
0.00341895
-1.04911e-05
0.00341987
-9.26308e-06
0.00342066
-8.16009e-06
0.00342136
-7.17233e-06
0.00342195
-6.29037e-06
0.00342247
-5.50585e-06
0.00342292
-4.80988e-06
0.00342331
-4.19335e-06
0.00342365
-3.64817e-06
0.00342394
-3.16714e-06
0.00342419
-2.74393e-06
0.0034244
-2.37267e-06
0.00342459
-2.04808e-06
0.00342475
-1.76483e-06
0.00342488
-1.51825e-06
0.003425
-1.30427e-06
0.0034251
-1.11958e-06
0.00342518
-9.60633e-07
0.00342526
-8.2409e-07
0.00342532
-7.07273e-07
0.00342538
-6.07919e-07
0.00342543
-5.23791e-07
0.00342547
-4.52563e-07
0.00342551
-3.92292e-07
0.00342554
-3.41382e-07
0.00342557
-2.98077e-07
0.0034256
-2.61512e-07
0.00342563
-2.32024e-07
-1.76548e-07
0.0033378
5.00371e-05
0.00335299
0.000122561
0.00337256
0.00016163
0.00339085
0.000170281
0.00340531
0.00016072
0.00341556
0.000142478
0.00342235
0.000120628
0.00342682
9.7418e-05
0.00343014
7.37312e-05
0.00343342
4.98942e-05
0.00343762
2.60481e-05
0.00344361
2.32068e-06
0.00345212
-2.10843e-05
0.0034638
-4.37738e-05
0.00347904
-6.50693e-05
0.00349807
-8.41784e-05
0.00352076
-9.99626e-05
0.00354666
-0.000111094
0.0035748
-0.000116143
0.00360377
-0.000113709
0.00363169
-0.000102636
0.00365628
-8.22465e-05
0.00367512
-5.26042e-05
0.00368586
-1.46947e-05
0.00368658
2.94714e-05
0.00367609
7.69414e-05
0.00365422
0.000124059
0.00362197
0.000166817
0.00358144
0.000201493
0.0035356
0.00022515
0.00348792
0.000236126
0.00344177
0.000234274
0.00340004
0.000220869
0.0033648
0.000198231
0.00333719
0.000169211
0.00331756
0.000136733
0.00330553
0.000103464
0.00330023
7.16071e-05
0.00330047
4.2784e-05
0.00330493
1.80188e-05
0.00331232
-2.20855e-06
0.00332179
-1.83129e-05
0.00333186
-2.9536e-05
0.00334216
-3.74278e-05
0.00335216
-4.22501e-05
0.00336151
-4.46554e-05
0.00337005
-4.51923e-05
0.00337769
-4.43682e-05
0.00338443
-4.25935e-05
0.00339028
-4.02061e-05
0.00339536
-3.74411e-05
0.00339974
-3.4509e-05
0.00340348
-3.15382e-05
0.00340668
-2.86266e-05
0.00340942
-2.58492e-05
0.00341176
-2.32204e-05
0.00341375
-2.07741e-05
0.00341546
-1.85281e-05
0.00341692
-1.64777e-05
0.00341818
-1.46135e-05
0.00341925
-1.29285e-05
0.00342017
-1.1414e-05
0.00342097
-1.00552e-05
0.00342165
-8.84094e-06
0.00342224
-7.7584e-06
0.00342274
-6.79389e-06
0.00342317
-5.93826e-06
0.00342354
-5.18026e-06
0.00342386
-4.51029e-06
0.00342413
-3.91959e-06
0.00342436
-3.3998e-06
0.00342456
-2.94283e-06
0.00342473
-2.54208e-06
0.00342487
-2.1917e-06
0.00342499
-1.88645e-06
0.0034251
-1.62134e-06
0.00342519
-1.39193e-06
0.00342526
-1.19413e-06
0.00342532
-1.02387e-06
0.00342538
-8.77838e-07
0.00342542
-7.5329e-07
0.00342546
-6.47815e-07
0.0034255
-5.5886e-07
0.00342553
-4.83849e-07
0.00342556
-4.2069e-07
0.00342559
-3.67779e-07
0.00342561
-3.23082e-07
0.00342564
-2.85233e-07
0.00342566
-2.54749e-07
-1.94705e-07
0.00333563
4.77432e-05
0.00334583
0.000112361
0.00335989
0.000147566
0.00337367
0.0001565
0.00338503
0.000149363
0.00339342
0.000134079
0.00339923
0.00011482
0.00340323
9.34182e-05
0.00340636
7.06026e-05
0.00340959
4.66613e-05
0.0034139
2.17402e-05
0.00342023
-4.00549e-06
0.00342951
-3.03715e-05
0.00344255
-5.681e-05
0.00346005
-8.25738e-05
0.00348245
-0.000106575
0.00350983
-0.000127348
0.00354184
-0.000143097
0.00357748
-0.000151783
0.00361507
-0.000151302
0.00365224
-0.000139803
0.00368599
-0.000116001
0.00371297
-7.95841e-05
0.00372983
-3.15477e-05
0.00373369
2.56068e-05
0.00372267
8.79566e-05
0.00369639
0.000150347
0.00365604
0.000207162
0.00360457
0.000252965
0.00354621
0.000283503
0.0034859
0.000296439
0.0034284
0.000291774
0.00337759
0.000271675
0.00333606
0.00023976
0.00330505
0.000200224
0.00328463
0.00015715
0.00327399
0.000114106
0.00327168
7.39168e-05
0.00327592
3.85455e-05
0.00328488
9.06364e-06
0.00329688
-1.42155e-05
0.00331006
-3.14876e-05
0.00332397
-4.3453e-05
0.00333729
-5.07439e-05
0.00334972
-5.46828e-05
0.00336093
-5.58691e-05
0.00337084
-5.51011e-05
0.00337943
-5.29569e-05
0.00338678
-4.99495e-05
0.00339302
-4.64431e-05
0.00339827
-4.26947e-05
0.00340269
-3.89255e-05
0.00340638
-3.52256e-05
0.00340946
-3.17122e-05
0.00341203
-2.84173e-05
0.00341418
-2.53713e-05
0.00341599
-2.25783e-05
0.0034175
-2.00425e-05
0.00341878
-1.77506e-05
0.00341985
-1.56879e-05
0.00342076
-1.3837e-05
0.00342153
-1.2182e-05
0.00342218
-1.07055e-05
0.00342273
-9.39187e-06
0.0034232
-8.22511e-06
0.00342359
-7.19011e-06
0.00342393
-6.27402e-06
0.00342421
-5.46383e-06
0.00342445
-4.74918e-06
0.00342465
-4.12026e-06
0.00342482
-3.56787e-06
0.00342496
-3.08342e-06
0.00342508
-2.65957e-06
0.00342518
-2.28978e-06
0.00342526
-1.96799e-06
0.00342533
-1.68885e-06
0.00342538
-1.44773e-06
0.00342543
-1.2403e-06
0.00342547
-1.06242e-06
0.0034255
-9.10464e-07
0.00342553
-7.813e-07
0.00342555
-6.72162e-07
0.00342558
-5.80369e-07
0.0034256
-5.03466e-07
0.00342561
-4.39281e-07
0.00342563
-3.86025e-07
0.00342565
-3.4145e-07
0.00342567
-3.03839e-07
0.00342569
-2.73903e-07
-2.10941e-07
0.00333398
4.71005e-05
0.00334034
0.000105993
0.00334994
0.000137966
0.00335969
0.00014675
0.00336785
0.000141205
0.00337386
0.000128067
0.00337789
0.000110785
0.00338051
9.08002e-05
0.00338248
6.86308e-05
0.0033847
4.44391e-05
0.00338816
1.82867e-05
0.00339393
-9.77229e-06
0.00340314
-3.9585e-05
0.00341689
-7.05644e-05
0.00343621
-0.000101887
0.00346189
-0.000132261
0.00349437
-0.000159822
0.00353349
-0.000182217
0.0035783
-0.000196601
0.00362691
-0.000199907
0.00367632
-0.000189214
0.00372257
-0.000162252
0.003761
-0.000118009
0.00378675
-5.73041e-05
0.00379555
1.68084e-05
0.00378439
9.91117e-05
0.00375235
0.000182385
0.00370098
0.000258536
0.00363435
0.000319593
0.00355864
0.000359215
0.00348104
0.000374032
0.00340841
0.000364406
0.003346
0.000334082
0.00329697
0.000288794
0.00326246
0.000234735
0.00324206
0.000177545
0.00323423
0.000121939
0.00323666
7.14852e-05
0.00324671
2.84936e-05
0.00326185
-6.06927e-06
0.00327966
-3.20287e-05
0.00329834
-5.01697e-05
0.00331637
-6.14819e-05
0.00333333
-6.77024e-05
0.00334844
-6.97931e-05
0.00336166
-6.90889e-05
0.00337292
-6.63621e-05
0.0033824
-6.24362e-05
0.00339026
-5.78151e-05
0.00339674
-5.2914e-05
0.00340204
-4.79942e-05
0.00340635
-4.32443e-05
0.00340987
-3.87448e-05
0.00341273
-3.45687e-05
0.00341506
-3.07481e-05
0.00341696
-2.72717e-05
0.00341851
-2.41305e-05
0.00341979
-2.13159e-05
0.00342083
-1.87972e-05
0.0034217
-1.6551e-05
0.00342241
-1.45502e-05
0.003423
-1.27725e-05
0.00342349
-1.11948e-05
0.00342389
-9.79651e-06
0.00342423
-8.55935e-06
0.00342451
-7.46614e-06
0.00342473
-6.50172e-06
0.00342492
-5.65161e-06
0.00342508
-4.90309e-06
0.0034252
-4.24554e-06
0.0034253
-3.66874e-06
0.00342538
-3.16392e-06
0.00342545
-2.72335e-06
0.0034255
-2.3399e-06
0.00342554
-2.00688e-06
0.00342557
-1.71858e-06
0.00342559
-1.4701e-06
0.00342561
-1.25695e-06
0.00342562
-1.07487e-06
0.00342563
-9.20021e-07
0.00342564
-7.89173e-07
0.00342565
-6.79162e-07
0.00342565
-5.87146e-07
0.00342566
-5.10684e-07
0.00342567
-4.47555e-07
0.00342568
-3.95686e-07
0.00342569
-3.52739e-07
0.0034257
-3.16876e-07
0.00342572
-2.892e-07
-2.25277e-07
0.00333265
4.77804e-05
0.00333594
0.000102706
0.00334181
0.000132092
0.00334795
0.000140608
0.00335294
0.000136217
0.00335625
0.00012476
0.00335793
0.000109101
0.00335841
9.03239e-05
0.00335834
6.87031e-05
0.00335857
4.42092e-05
0.00336011
1.6749e-05
0.00336419
-1.38599e-05
0.00337224
-4.76282e-05
0.00338569
-8.40198e-05
0.00340603
-0.000122231
0.00343459
-0.000160818
0.00347234
-0.000197567
0.00351955
-0.000229429
0.0035755
-0.000252554
0.00363812
-0.000262525
0.00370374
-0.000254838
0.00376712
-0.000225637
0.00382177
-0.000172657
0.00386065
-9.61769e-05
0.00387722
2.36139e-07
0.00386674
0.000109586
0.00382732
0.000221809
0.00376077
0.000325078
0.00367287
0.000407498
0.00357275
0.000459338
0.00347123
0.000475547
0.00337836
0.000457274
0.00330128
0.000411164
0.00324358
0.000346491
0.00320597
0.000272352
0.00318712
0.000196391
0.00318436
0.000124699
0.00319413
6.17111e-05
0.00321251
1.0117e-05
0.00323632
-2.98745e-05
0.00326163
-5.73472e-05
0.00328664
-7.5174e-05
0.00331018
-8.50236e-05
0.00333103
-8.85482e-05
0.00334911
-8.78722e-05
0.00336426
-8.42472e-05
0.00337679
-7.88933e-05
0.00338696
-7.25997e-05
0.00339512
-6.59803e-05
0.00340162
-5.94155e-05
0.00340677
-5.3143e-05
0.00341082
-4.72949e-05
0.00341403
-4.19523e-05
0.00341654
-3.70838e-05
0.00341852
-3.27228e-05
0.00342008
-2.88328e-05
0.00342132
-2.53681e-05
0.00342229
-2.22958e-05
0.00342307
-1.95748e-05
0.00342369
-1.71682e-05
0.00342418
-1.50411e-05
0.00342457
-1.31631e-05
0.00342488
-1.15056e-05
0.00342513
-1.0043e-05
0.00342532
-8.75286e-06
0.00342547
-7.61644e-06
0.00342558
-6.6165e-06
0.00342567
-5.73727e-06
0.00342573
-4.96563e-06
0.00342578
-4.28933e-06
0.00342581
-3.69749e-06
0.00342582
-3.18059e-06
0.00342583
-2.73057e-06
0.00342583
-2.3398e-06
0.00342583
-2.00136e-06
0.00342582
-1.70922e-06
0.0034258
-1.45821e-06
0.00342579
-1.2435e-06
0.00342578
-1.06067e-06
0.00342576
-9.05963e-07
0.00342575
-7.76053e-07
0.00342574
-6.67747e-07
0.00342573
-5.78039e-07
0.00342572
-5.04387e-07
0.00342572
-4.44442e-07
0.00342572
-3.95985e-07
0.00342572
-3.56565e-07
0.00342573
-3.2429e-07
0.00342574
-3.00707e-07
-2.37847e-07
0.00333157
4.95391e-05
0.00333231
0.000101966
0.00333502
0.000129387
0.00333792
0.000137705
0.00333983
0.000134307
0.00334025
0.000124347
0.00333914
0.000110209
0.00333682
9.26448e-05
0.00333385
7.1666e-05
0.00333107
4.69959e-05
0.0033295
1.8318e-05
0.00333051
-1.4875e-05
0.00333592
-5.30383e-05
0.0033476
-9.57004e-05
0.00336765
-0.000142282
0.00339817
-0.000191328
0.00344093
-0.00024033
0.00349701
-0.000285514
0.00356623
-0.000321773
0.00364656
-0.000342856
0.00373366
-0.000341935
0.00382066
-0.000312636
0.00389849
-0.000250491
0.00395687
-0.000154547
0.00398582
-2.87177e-05
0.0039777
0.000117709
0.00392889
0.000270616
0.00384131
0.00041266
0.00372305
0.000525755
0.00358795
0.000594438
0.00345283
0.000610659
0.00333286
0.000577252
0.00323758
0.000506444
0.00317047
0.000413598
0.003131
0.000311821
0.00311634
0.000211047
0.00312215
0.000118891
0.00314316
4.0707e-05
0.00317376
-2.04894e-05
0.00320828
-6.43905e-05
0.00324357
-9.26373e-05
0.00327684
-0.000108444
0.0033063
-0.000114482
0.00333161
-0.000113863
0.00335256
-0.000108827
0.00336954
-0.000101222
0.00338299
-9.23511e-05
0.00339352
-8.3121e-05
0.00340164
-7.41061e-05
0.00340786
-6.56349e-05
0.00341259
-5.78713e-05
0.00341617
-5.08711e-05
0.00341885
-4.46413e-05
0.00342088
-3.91085e-05
0.00342239
-3.42391e-05
0.00342353
-2.99662e-05
0.00342438
-2.62157e-05
0.003425
-2.29252e-05
0.00342547
-2.00425e-05
0.00342581
-1.75091e-05
0.00342605
-1.52863e-05
0.00342623
-1.3335e-05
0.00342634
-1.16199e-05
0.00342641
-1.01143e-05
0.00342645
-8.79147e-06
0.00342647
-7.63003e-06
0.00342646
-6.61049e-06
0.00342644
-5.71635e-06
0.00342641
-4.93327e-06
0.00342637
-4.24872e-06
0.00342632
-3.65112e-06
0.00342627
-3.13067e-06
0.00342622
-2.67871e-06
0.00342617
-2.28725e-06
0.00342612
-1.94926e-06
0.00342607
-1.65869e-06
0.00342602
-1.41006e-06
0.00342597
-1.19824e-06
0.00342593
-1.01872e-06
0.00342589
-8.67694e-07
0.00342586
-7.41788e-07
0.00342583
-6.37842e-07
0.0034258
-5.52868e-07
0.00342578
-4.84254e-07
0.00342577
-4.29608e-07
0.00342576
-3.86595e-07
0.00342576
-3.52772e-07
0.00342576
-3.26145e-07
0.00342577
-3.08633e-07
-2.48821e-07
0.00333071
5.2157e-05
0.00332934
0.000103337
0.00332935
0.000129384
0.00332936
0.000137698
0.00332832
0.000135338
0.00332575
0.000126925
0.00332151
0.000114442
0.00331582
9.83369e-05
0.00330914
7.83416e-05
0.00330226
5.38832e-05
0.00329624
2.4335e-05
0.00329248
-1.11188e-05
0.00329333
-5.38854e-05
0.00330114
-0.000103512
0.00331882
-0.000159959
0.00334952
-0.000222031
0.00339629
-0.000287103
0.00346152
-0.00035074
0.00354612
-0.000406374
0.0036486
-0.000445331
0.00376409
-0.000457421
0.00388376
-0.000432311
0.00399499
-0.000361726
0.00408264
-0.00024219
0.0041314
-7.74809e-05
0.0041289
0.000120205
0.00406848
0.000331042
0.00395146
0.000529676
0.00378905
0.000688162
0.0036027
0.000780795
0.00341956
0.000793797
0.00326336
0.000733449
0.00314638
0.000623416
0.00307021
0.000489773
0.00303161
0.000350425
0.00302545
0.0002172
0.00304505
9.92875e-05
0.00308298
2.78272e-06
0.00313017
-6.76799e-05
0.00317984
-0.000114059
0.00322767
-0.00014047
0.00327036
-0.00015113
0.00330668
-0.000150805
0.00333643
-0.000143607
0.00336001
-0.000132414
0.00337828
-0.000119487
0.00339213
-0.000106202
0.00340247
-9.34573e-05
0.00341006
-8.17082e-05
0.0034156
-7.11659e-05
0.00341956
-6.18345e-05
0.00342239
-5.36938e-05
0.00342436
-4.66087e-05
0.00342572
-4.04762e-05
0.00342665
-3.51711e-05
0.00342727
-3.05807e-05
0.00342765
-2.66025e-05
0.00342788
-2.31538e-05
0.00342799
-2.01527e-05
0.00342802
-1.75402e-05
0.003428
-1.52618e-05
0.00342793
-1.32693e-05
0.00342784
-1.15276e-05
0.00342773
-1.00036e-05
0.00342761
-8.66956e-06
0.00342748
-7.50169e-06
0.00342735
-6.4794e-06
0.00342722
-5.58492e-06
0.00342709
-4.80356e-06
0.00342696
-4.12204e-06
0.00342684
-3.52868e-06
0.00342673
-3.01336e-06
0.00342661
-2.56727e-06
0.00342651
-2.18173e-06
0.00342641
-1.85018e-06
0.00342632
-1.5663e-06
0.00342623
-1.3246e-06
0.00342615