/*--------------------------------*- C++ -*----------------------------------*\
| =========                 |                                                 |
| \\      /  F ield         | OpenFOAM: The Open Source CFD Toolbox           |
|  \\    /   O peration     | Version:  v1806                                 |
|   \\  /    A nd           | Web:      www.OpenFOAM.com                      |
|    \\/     M anipulation  |                                                 |
\*---------------------------------------------------------------------------*/
FoamFile
{
    version     2.0;
    format      ascii;
    class       volVectorField;
    location    "0.07";
    object      U;
}
// * * * * * * * * * * * * * * * * * * * * * * * * * * * * * * * * * * * * * //

dimensions      [0 1 -1 0 0 0 0];


internalField   nonuniform List<vector> 
5400
(
(0.8437 0.0981736 0)
(0.773043 0.104922 0)
(0.643683 0.0669278 0)
(0.548169 0.0355296 0)
(0.500966 0.0170174 0)
(0.478035 0.00819223 0)
(0.465041 0.00426176 0)
(0.45717 0.00235491 0)
(0.452399 0.00133617 0)
(0.449486 0.000732538 0)
(0.447767 0.000320157 0)
(0.44692 5.27946e-06 0)
(0.446752 -0.000244163 0)
(0.447131 -0.000438006 0)
(0.44794 -0.000585191 4.58795e-36)
(0.449063 -0.00068528 -4.58795e-36)
(0.450391 -0.000734138 0)
(0.451809 -0.000726913 0)
(0.453194 -0.000659809 0)
(0.454421 -0.00053201 0)
(0.455363 -0.000344731 0)
(0.455898 -0.000101832 0)
(0.455928 0.000189012 0)
(0.455367 0.000503731 0)
(0.454148 0.000831309 0)
(0.452258 0.00115855 0)
(0.44972 0.00146357 0)
(0.44659 0.00172641 0)
(0.442967 0.00193073 0)
(0.438978 0.00206371 0)
(0.434769 0.00211804 0)
(0.430497 0.00209317 0)
(0.426322 0.00199389 0)
(0.422385 0.0018291 0)
(0.418808 0.00161157 0)
(0.415685 0.00135699 0)
(0.413082 0.0010816 0)
(0.411029 0.000800204 0)
(0.409528 0.000525621 0)
(0.408559 0.000268736 0)
(0.408081 3.74062e-05 0)
(0.408038 -0.000164886 0)
(0.408355 -0.000337737 0)
(0.408972 -0.000462161 0)
(0.409836 -0.000552379 0)
(0.410869 -0.000618154 0)
(0.412019 -0.000651895 0)
(0.413236 -0.000668355 0)
(0.414479 -0.000663652 0)
(0.415714 -0.000648015 0)
(0.416916 -0.000619526 0)
(0.418068 -0.000583254 0)
(0.419153 -0.000542862 0)
(0.420163 -0.000500417 0)
(0.421094 -0.000456933 0)
(0.421945 -0.000414073 0)
(0.422715 -0.000372565 0)
(0.423407 -0.00033241 0)
(0.424026 -0.000294401 0)
(0.424575 -0.000259372 0)
(0.425059 -0.000227493 0)
(0.425484 -0.000198443 0)
(0.425856 -0.000172032 0)
(0.426179 -0.000148267 0)
(0.426458 -0.000127007 0)
(0.426699 -0.000108028 0)
(0.426904 -9.12078e-05 0)
(0.427079 -7.65381e-05 0)
(0.427226 -6.37955e-05 0)
(0.42735 -5.26571e-05 0)
(0.427454 -4.3061e-05 0)
(0.42754 -3.48705e-05 0)
(0.42761 -2.77309e-05 0)
(0.427668 -2.15078e-05 0)
(0.427714 -1.63379e-05 0)
(0.42775 -1.2155e-05 0)
(0.427778 -8.66906e-06 0)
(0.4278 -5.79428e-06 0)
(0.427816 -3.62225e-06 0)
(0.427828 -2.02254e-06 0)
(0.427837 -7.11113e-07 0)
(0.427843 3.75345e-07 0)
(0.427848 1.08308e-06 0)
(0.42785 1.37808e-06 0)
(0.427852 1.41011e-06 0)
(0.427854 1.25199e-06 0)
(0.427855 9.67269e-07 0)
(0.427857 3.29715e-07 0)
(0.42786 2.28205e-07 0)
(0.42786 8.41986e-07 0)
(0.995897 0.148277 0)
(1.04516 0.18944 0)
(1.03844 0.14429 0)
(0.998159 0.0909951 0)
(0.965245 0.0519189 0)
(0.944029 0.0293036 0)
(0.928601 0.017278 0)
(0.917262 0.0106393 0)
(0.909454 0.00670946 0)
(0.904196 0.00418906 0)
(0.900728 0.00241738 0)
(0.898624 0.00107667 0)
(0.897605 2.27066e-05 0)
(0.897456 -0.000811701 0)
(0.897997 -0.00145976 0)
(0.899071 -0.0019267 0)
(0.900529 -0.00220734 0)
(0.902217 -0.00229314 0)
(0.903973 -0.00217564 0)
(0.905633 -0.00185 0)
(0.907033 -0.00132102 0)
(0.90801 -0.000603046 0)
(0.908418 0.000277713 0)
(0.908136 0.0012721 0)
(0.907081 0.00233198 0)
(0.905209 0.00340265 0)
(0.902517 0.00441686 0)
(0.899059 0.00531087 0)
(0.894935 0.00602953 0)
(0.890287 0.00653002 0)
(0.885284 0.00678546 0)
(0.880112 0.00678805 0)
(0.874961 0.00654876 0)
(0.870007 0.0060944 0)
(0.865402 0.0054641 0)
(0.861268 0.00470521 0)
(0.857694 0.00386796 0)
(0.85473 0.00300035 0)
(0.852389 0.00214497 0)
(0.850656 0.00133746 0)
(0.849493 0.000604658 0)
(0.848843 -3.67329e-05 0)
(0.848649 -0.000578503 0)
(0.848833 -0.00100719 0)
(0.849311 -0.00133154 0)
(0.850022 -0.00156807 0)
(0.850906 -0.00171833 0)
(0.851905 -0.00180242 0)
(0.852973 -0.00182648 0)
(0.854069 -0.00180725 0)
(0.855167 -0.00175053 0)
(0.85624 -0.00166801 0)
(0.857272 -0.0015681 0)
(0.85825 -0.00145765 0)
(0.859167 -0.00134232 0)
(0.860017 -0.0012257 0)
(0.860799 -0.0011107 0)
(0.861516 -0.000999491 0)
(0.862167 -0.000893583 0)
(0.862755 -0.000794565 0)
(0.863284 -0.000703318 0)
(0.863757 -0.000619954 0)
(0.864179 -0.000544003 0)
(0.864555 -0.000474959 0)
(0.864888 -0.000412595 0)
(0.865183 -0.000356826 0)
(0.865444 -0.000307231 0)
(0.865673 -0.000263325 0)
(0.865873 -0.000224743 0)
(0.866049 -0.000191027 0)
(0.866202 -0.000161565 0)
(0.866335 -0.000135794 0)
(0.866452 -0.000113306 0)
(0.866553 -9.38374e-05 0)
(0.86664 -7.71756e-05 0)
(0.866716 -6.30213e-05 0)
(0.866781 -5.10605e-05 0)
(0.866837 -4.11198e-05 0)
(0.866885 -3.29826e-05 0)
(0.866926 -2.62662e-05 0)
(0.866962 -2.06425e-05 0)
(0.866992 -1.60403e-05 0)
(0.867018 -1.2489e-05 0)
(0.867041 -9.87951e-06 0)
(0.86706 -8.02526e-06 0)
(0.867076 -6.91822e-06 0)
(0.867089 -6.20538e-06 0)
(0.867102 -6.58719e-06 0)
(0.867111 -6.1424e-06 0)
(0.867117 -3.19739e-06 0)
(1.0008 0.0802991 0)
(1.05939 0.14262 0)
(1.09531 0.133223 0)
(1.09093 0.0998074 0)
(1.07807 0.0676274 0)
(1.06708 0.0446137 0)
(1.05633 0.0296902 0)
(1.04685 0.0200177 0)
(1.03973 0.0135279 0)
(1.03465 0.00895798 0)
(1.03117 0.00556322 0)
(1.02898 0.0029272 0)
(1.02789 0.000822923 0)
(1.02769 -0.00086822 0)
(1.02824 -0.00219957 0)
(1.02939 -0.00318811 0)
(1.03098 -0.00382946 0)
(1.03285 -0.00411023 0)
(1.03484 -0.00401548 0)
(1.03677 -0.00353531 0)
(1.03845 -0.00267458 0)
(1.03971 -0.00145863 0)
(1.04037 6.49804e-05 0)
(1.0403 0.00182995 0)
(1.03938 0.00374065 0)
(1.03756 0.00568507 0)
(1.03484 0.00754753 0)
(1.03125 0.00921168 0)
(1.02692 0.0105737 0)
(1.022 0.0115519 0)
(1.01667 0.012094 0)
(1.01115 0.0121818 0)
(1.00565 0.0118319 0)
(1.00037 0.0110909 0)
(0.995477 0.0100283 0)
(0.991101 0.00872778 0)
(0.987336 0.00727878 0)
(0.984233 0.00576809 0)
(0.981801 0.00427303 0)
(0.980017 0.00285745 0)
(0.978834 0.00156969 0)
(0.978188 0.000442442 0)
(0.978005 -0.000506228 0)
(0.978207 -0.00128042 0)
(0.97871 -0.0018811 0)
(0.97944 -0.00231965 0)
(0.980337 -0.0026187 0)
(0.981342 -0.0027947 0)
(0.98241 -0.00287157 0)
(0.983501 -0.00286676 0)
(0.984587 -0.00280027 0)
(0.985644 -0.0026878 0)
(0.986657 -0.00254297 0)
(0.987615 -0.00237736 0)
(0.98851 -0.00220078 0)
(0.989339 -0.00201976 0)
(0.990101 -0.00183963 0)
(0.990797 -0.00166479 0)
(0.99143 -0.00149769 0)
(0.992002 -0.00134037 0)
(0.992517 -0.00119433 0)
(0.992978 -0.00106006 0)
(0.99339 -0.000937235 0)
(0.993757 -0.000825336 0)
(0.994084 -0.000723983 0)
(0.994373 -0.000632835 0)
(0.99463 -0.000551368 0)
(0.994856 -0.000478932 0)
(0.995055 -0.000414837 0)
(0.99523 -0.000358251 0)
(0.995383 -0.000308293 0)
(0.995518 -0.000264346 0)
(0.995635 -0.000225879 0)
(0.995738 -0.000192258 0)
(0.995828 -0.000162978 0)
(0.995906 -0.000137729 0)
(0.995974 -0.000116157 0)
(0.996032 -9.77597e-05 0)
(0.996083 -8.20186e-05 0)
(0.996127 -6.85975e-05 0)
(0.996165 -5.72809e-05 0)
(0.996199 -4.78324e-05 0)
(0.996228 -3.99875e-05 0)
(0.996253 -3.35562e-05 0)
(0.996274 -2.8416e-05 0)
(0.996293 -2.44706e-05 0)
(0.996308 -2.11606e-05 0)
(0.996324 -1.90176e-05 0)
(0.996333 -1.66811e-05 0)
(0.996344 -1.15667e-05 0)
(0.995174 0.049672 0)
(1.03617 0.106375 0)
(1.07444 0.113885 0)
(1.08138 0.0960503 0)
(1.07982 0.0726881 0)
(1.07737 0.052636 0)
(1.07224 0.0376089 0)
(1.06625 0.0267298 0)
(1.06125 0.0187722 0)
(1.05749 0.0127816 0)
(1.05484 0.00811392 0)
(1.05322 0.00436837 0)
(1.05255 0.00130588 0)
(1.05271 -0.00119956 0)
(1.0536 -0.00320546 -5.91638e-34)
(1.05509 -0.00473146 5.91638e-34)
(1.05706 -0.00576029 0)
(1.05935 -0.0062618 0)
(1.06177 -0.00620789 0)
(1.06416 -0.00557768 0)
(1.0663 -0.00437123 0)
(1.06797 -0.00261851 0)
(1.069 -0.000384433 0)
(1.06919 0.00222965 0)
(1.06842 0.00508443 0)
(1.06662 0.00801279 0)
(1.06377 0.0108348 0)
(1.05992 0.0133703 0)
(1.0552 0.0154569 0)
(1.04981 0.016966 0)
(1.04397 0.0178156 0)
(1.03792 0.0179779 0)
(1.03192 0.0174789 0)
(1.02621 0.0163906 0)
(1.02097 0.0148199 0)
(1.01635 0.012896 0)
(1.01244 0.010756 0)
(1.00929 0.00853114 0)
(1.00689 0.00633687 0)
(1.00521 0.00426697 0)
(1.00418 0.0023913 0)
(1.00371 0.000755563 0)
(1.00371 -0.000617222 0)
(1.0041 -0.00172291 0)
(1.00478 -0.00258362 0)
(1.00567 -0.0032095 0)
(1.0067 -0.00363274 0)
(1.00782 -0.00388148 0)
(1.00898 -0.00398876 0)
(1.01014 -0.00398174 0)
(1.01127 -0.00388883 0)
(1.01236 -0.00373182 0)
(1.0134 -0.00353093 0)
(1.01437 -0.00330195 0)
(1.01526 -0.00305733 0)
(1.01609 -0.00280739 0)
(1.01684 -0.00255912 0)
(1.01752 -0.00231805 0)
(1.01814 -0.00208854 0)
(1.0187 -0.00187288 0)
(1.0192 -0.00167221 0)
(1.01964 -0.00148714 0)
(1.02004 -0.00131784 0)
(1.02039 -0.0011639 0)
(1.0207 -0.00102453 0)
(1.02098 -0.00089898 0)
(1.02123 -0.000786599 0)
(1.02144 -0.000686464 0)
(1.02163 -0.000597453 0)
(1.0218 -0.000518503 0)
(1.02195 -0.000448818 0)
(1.02208 -0.000387499 0)
(1.02219 -0.000333497 0)
(1.02229 -0.000286068 0)
(1.02237 -0.000244783 0)
(1.02245 -0.00020909 0)
(1.02251 -0.000178226 0)
(1.02257 -0.000151552 0)
(1.02262 -0.00012868 0)
(1.02266 -0.000109201 0)
(1.02269 -9.26003e-05 0)
(1.02273 -7.84575e-05 0)
(1.02276 -6.65421e-05 0)
(1.02278 -5.66543e-05 0)
(1.0228 -4.84899e-05 0)
(1.02282 -4.1758e-05 0)
(1.02283 -3.59811e-05 0)
(1.02285 -3.14566e-05 0)
(1.02286 -2.76366e-05 0)
(1.02287 -2.05341e-05 0)
(0.992341 0.0338251 0)
(1.01964 0.0810689 0)
(1.05096 0.0949801 0)
(1.05896 0.0868893 0)
(1.06217 0.0709079 0)
(1.06487 0.0548217 0)
(1.06398 0.0412927 0)
(1.06111 0.0305562 0)
(1.0583 0.0220889 0)
(1.05607 0.0153122 0)
(1.0545 0.0097716 0)
(1.05368 0.00515494 0)
(1.05364 0.00126724 0)
(1.05435 -0.00198856 0)
(1.05577 -0.00466321 0)
(1.0578 -0.00674461 0)
(1.06034 -0.00819183 0)
(1.06325 -0.00894937 0)
(1.06633 -0.00896149 0)
(1.06939 -0.00818545 0)
(1.07218 -0.00660836 0)
(1.07447 -0.00425902 0)
(1.07602 -0.00121805 0)
(1.07659 0.00237714 0)
(1.07603 0.0063362 0)
(1.07423 0.0104251 0)
(1.07116 0.014383 0)
(1.06689 0.0179488 0)
(1.06158 0.0208852 0)
(1.05547 0.0230054 0)
(1.04884 0.024192 0)
(1.042 0.0244068 0)
(1.03527 0.0236903 0)
(1.02893 0.0221512 0)
(1.02321 0.0199487 0)
(1.01825 0.0172714 0)
(1.01417 0.0143151 0)
(1.01099 0.0112645 0)
(1.00868 0.0082798 0)
(1.00719 0.00548852 0)
(1.0064 0.00298222 0)
(1.00622 0.000817161 0)
(1.00654 -0.000982136 0)
(1.00722 -0.0024136 0)
(1.00817 -0.00350846 0)
(1.0093 -0.00429245 0)
(1.01055 -0.00480979 0)
(1.01184 -0.00510099 0)
(1.01314 -0.00521045 0)
(1.01441 -0.00517637 0)
(1.01563 -0.00503435 0)
(1.01678 -0.00481467 0)
(1.01785 -0.00454227 0)
(1.01884 -0.00423719 0)
(1.01974 -0.00391565 0)
(1.02057 -0.00358938 0)
(1.02131 -0.00326819 0)
(1.02198 -0.00295796 0)
(1.02259 -0.0026639 0)
(1.02313 -0.00238836 0)
(1.02361 -0.00213258 0)
(1.02403 -0.0018973 0)
(1.02441 -0.00168233 0)
(1.02475 -0.00148699 0)
(1.02505 -0.00131041 0)
(1.02531 -0.00115159 0)
(1.02554 -0.00100933 0)
(1.02574 -0.000882399 0)
(1.02592 -0.000769525 0)
(1.02608 -0.000669466 0)
(1.02621 -0.00058099 0)
(1.02633 -0.000502876 0)
(1.02644 -0.000434075 0)
(1.02653 -0.000373817 0)
(1.02661 -0.000321295 0)
(1.02668 -0.000275591 0)
(1.02674 -0.000235907 0)
(1.02679 -0.000201663 0)
(1.02683 -0.000172287 0)
(1.02687 -0.000147087 0)
(1.0269 -0.000125466 0)
(1.02693 -0.00010705 0)
(1.02696 -9.15254e-05 0)
(1.02698 -7.84599e-05 0)
(1.027 -6.73979e-05 0)
(1.02702 -5.80857e-05 0)
(1.02703 -5.01762e-05 0)
(1.02705 -4.36747e-05 0)
(1.02706 -3.84127e-05 0)
(1.02707 -2.90309e-05 0)
(0.991157 0.0252197 0)
(1.01077 0.0637682 0)
(1.03566 0.0791657 0)
(1.04167 0.0766665 0)
(1.04611 0.0660556 0)
(1.05125 0.0536151 0)
(1.05289 0.0420536 0)
(1.05219 0.0321089 0)
(1.05111 0.023714 0)
(1.0502 0.0165973 0)
(1.04964 0.0104952 0)
(1.04961 0.00520614 0)
(1.05025 0.000606251 0)
(1.05159 -0.00337263 0)
(1.05363 -0.00672307 0)
(1.05633 -0.0093957 0)
(1.0596 -0.0113143 0)
(1.06331 -0.0123826 0)
(1.06726 -0.012501 0)
(1.07123 -0.0115913 0)
(1.07494 -0.00961352 0)
(1.07808 -0.00658603 0)
(1.08036 -0.00260158 0)
(1.08148 0.00216635 0)
(1.08121 0.00746286 0)
(1.07942 0.0129683 0)
(1.07606 0.0183192 0)
(1.0712 0.0231473 0)
(1.06506 0.0271172 0)
(1.05793 0.0299647 0)
(1.05019 0.0315257 0)
(1.04225 0.0317521 0)
(1.03451 0.0307105 0)
(1.02732 0.0285645 0)
(1.02094 0.0255465 0)
(1.01556 0.0219243 0)
(1.01128 0.0179701 0)
(1.0081 0.0139359 0)
(1.00595 0.0100352 0)
(1.00474 0.00643283 0)
(1.00432 0.00324104 0)
(1.00455 0.000522366 0)
(1.00529 -0.00170436 0)
(1.00637 -0.00344039 0)
(1.00769 -0.00473345 0)
(1.00915 -0.00563726 0)
(1.01067 -0.00620544 0)
(1.01219 -0.00649875 0)
(1.01366 -0.0065716 0)
(1.01507 -0.00647643 0)
(1.01639 -0.00625566 0)
(1.01761 -0.00594838 0)
(1.01872 -0.00558431 0)
(1.01974 -0.00518763 0)
(1.02065 -0.00477707 0)
(1.02147 -0.00436621 0)
(1.02221 -0.00396563 0)
(1.02286 -0.00358243 0)
(1.02344 -0.00322113 0)
(1.02396 -0.00288405 0)
(1.02442 -0.0025726 0)
(1.02482 -0.00228712 0)
(1.02518 -0.002027 0)
(1.02549 -0.00179127 0)
(1.02577 -0.00157872 0)
(1.02601 -0.00138771 0)
(1.02623 -0.00121669 0)
(1.02641 -0.00106429 0)
(1.02658 -0.000928885 0)
(1.02672 -0.000808794 0)
(1.02684 -0.000702564 0)
(1.02695 -0.000608902 0)
(1.02705 -0.000526528 0)
(1.02713 -0.00045429 0)
(1.0272 -0.000391176 0)
(1.02726 -0.000336249 0)
(1.02732 -0.000288617 0)
(1.02736 -0.00024746 0)
(1.0274 -0.00021198 0)
(1.02744 -0.000181447 0)
(1.02747 -0.000155284 0)
(1.02749 -0.000133001 0)
(1.02752 -0.000114104 0)
(1.02754 -9.80812e-05 0)
(1.02755 -8.44766e-05 0)
(1.02757 -7.30049e-05 0)
(1.02758 -6.32902e-05 0)
(1.0276 -5.51326e-05 0)
(1.0276 -4.84931e-05 0)
(1.02762 -3.6746e-05 0)
(0.990622 0.0203312 0)
(1.00601 0.0521797 0)
(1.02631 0.0670276 0)
(1.02982 0.0674504 0)
(1.0339 0.0603948 0)
(1.03984 0.050805 0)
(1.04274 0.0410864 0)
(1.04335 0.032115 0)
(1.04343 0.0240633 0)
(1.0435 0.0168607 0)
(1.04375 0.0103899 0)
(1.04442 0.00455176 0)
(1.04568 -0.000707002 0)
(1.04764 -0.00540068 0)
(1.05035 -0.00946657 -1.16583e-33)
(1.05381 -0.0128084 1.16583e-33)
(1.05796 -0.0152952 0)
(1.06266 -0.0167682 0)
(1.06772 -0.0170679 0)
(1.07287 -0.0160607 0)
(1.07779 -0.0136609 0)
(1.08208 -0.00986113 0)
(1.08537 -0.00475706 0)
(1.08726 0.0014384 0)
(1.08744 0.00839325 0)
(1.08569 0.0156741 0)
(1.08195 0.0227831 0)
(1.0763 0.0292038 0)
(1.06901 0.0344657 0)
(1.06049 0.0381986 0)
(1.05124 0.0401779 0)
(1.04181 0.0403483 0)
(1.03271 0.0388199 0)
(1.02439 0.0358388 0)
(1.01719 0.0317414 0)
(1.0113 0.026905 0)
(1.0068 0.0217041 0)
(1.00368 0.016476 0)
(1.0018 0.0114976 0)
(1.00101 0.00697328 0)
(1.00111 0.00303378 0)
(1.0019 -0.000257175 0)
(1.00319 -0.00287945 0)
(1.0048 -0.00489713 0)
(1.00658 -0.00634532 0)
(1.00844 -0.0073143 0)
(1.01029 -0.00787584 0)
(1.01208 -0.00811517 0)
(1.01377 -0.0081012 0)
(1.01533 -0.00790141 0)
(1.01676 -0.00756474 0)
(1.01805 -0.00713911 0)
(1.01921 -0.00665947 0)
(1.02025 -0.00615246 0)
(1.02117 -0.00563911 0)
(1.02198 -0.00513371 0)
(1.0227 -0.00464659 0)
(1.02333 -0.0041853 0)
(1.02388 -0.00375372 0)
(1.02437 -0.00335407 0)
(1.0248 -0.00298681 0)
(1.02518 -0.00265152 0)
(1.02551 -0.0023472 0)
(1.0258 -0.00207234 0)
(1.02605 -0.00182512 0)
(1.02627 -0.00160355 0)
(1.02646 -0.00140569 0)
(1.02663 -0.00122947 0)
(1.02677 -0.00107286 0)
(1.0269 -0.000934129 0)
(1.02701 -0.000811659 0)
(1.02711 -0.000703752 0)
(1.02719 -0.000608844 0)
(1.02726 -0.000525651 0)
(1.02732 -0.000453035 0)
(1.02738 -0.000389832 0)
(1.02742 -0.000334961 0)
(1.02746 -0.000287516 0)
(1.0275 -0.000246655 0)
(1.02753 -0.000211546 0)
(1.02755 -0.000181433 0)
(1.02758 -0.000155682 0)
(1.0276 -0.000133752 0)
(1.02761 -0.000115161 0)
(1.02763 -9.94412e-05 0)
(1.02764 -8.61713e-05 0)
(1.02765 -7.48966e-05 0)
(1.02766 -6.53843e-05 0)
(1.02767 -5.76511e-05 0)
(1.02768 -4.37327e-05 0)
(0.990345 0.0174036 0)
(1.00325 0.0442747 0)
(1.02034 0.0579006 0)
(1.02159 0.0597393 0)
(1.0247 0.0549558 0)
(1.03058 0.0474562 0)
(1.0339 0.0392636 0)
(1.03516 0.0312154 0)
(1.03591 0.0235785 0)
(1.03659 0.016396 0)
(1.0374 0.00964621 0)
(1.03858 0.00330713 0)
(1.04037 -0.00261674 0)
(1.0429 -0.00806709 0)
(1.04629 -0.0129433 0)
(1.05057 -0.0170872 0)
(1.05571 -0.0202935 0)
(1.0616 -0.022327 0)
(1.06804 -0.0229425 0)
(1.0747 -0.0219194 0)
(1.0812 -0.0190993 0)
(1.08705 -0.0144262 0)
(1.09172 -0.00798504 0)
(1.09469 -2.9371e-05 0)
(1.09552 0.00901456 0)
(1.09388 0.0185658 0)
(1.08966 0.0279409 0)
(1.08296 0.0364182 0)
(1.07412 0.0433341 0)
(1.06371 0.0481687 0)
(1.05241 0.0506161 0)
(1.04097 0.0506195 0)
(1.03007 0.0483615 0)
(1.02031 0.0442137 0)
(1.01208 0.0386646 0)
(1.0056 0.0322447 0)
(1.00092 0.0254646 0)
(0.997961 0.0187699 0)
(0.996521 0.0125124 0)
(0.996347 0.00693766 0)
(0.997163 0.00218703 0)
(0.998709 -0.00169392 0)
(1.00071 -0.00468408 0)
(1.00297 -0.00690918 0)
(1.00534 -0.00844211 0)
(1.00768 -0.00939109 0)
(1.00993 -0.00987106 0)
(1.01203 -0.00998234 0)
(1.01394 -0.0098186 0)
(1.01567 -0.00945551 0)
(1.01722 -0.00896216 0)
(1.01858 -0.00838447 0)
(1.01977 -0.00776169 0)
(1.02082 -0.00712398 0)
(1.02173 -0.00649235 0)
(1.02253 -0.00588221 0)
(1.02322 -0.00530203 0)
(1.02382 -0.0047587 0)
(1.02434 -0.00425486 0)
(1.02479 -0.00379171 0)
(1.02519 -0.00336884 0)
(1.02553 -0.00298504 0)
(1.02582 -0.00263814 0)
(1.02608 -0.00232589 0)
(1.0263 -0.00204593 0)
(1.0265 -0.0017957 0)
(1.02667 -0.0015728 0)
(1.02681 -0.0013747 0)
(1.02694 -0.00119898 0)
(1.02705 -0.00104351 0)
(1.02714 -0.000906326 0)
(1.02722 -0.000785521 0)
(1.02729 -0.000679447 0)
(1.02735 -0.000586637 0)
(1.0274 -0.000505648 0)
(1.02745 -0.000435092 0)
(1.02748 -0.000373842 0)
(1.02752 -0.000320945 0)
(1.02754 -0.000275442 0)
(1.02757 -0.000236368 0)
(1.02759 -0.000202885 0)
(1.02761 -0.000174323 0)
(1.02762 -0.000150061 0)
(1.02764 -0.000129504 0)
(1.02765 -0.000112118 0)
(1.02766 -9.74298e-05 0)
(1.02767 -8.49308e-05 0)
(1.02768 -7.43804e-05 0)
(1.02768 -6.58577e-05 0)
(1.02769 -5.00631e-05 0)
(0.990173 0.015635 0)
(1.00147 0.0388107 0)
(1.01628 0.051106 0)
(1.01561 0.0535587 0)
(1.01759 0.0502088 0)
(1.02295 0.0441953 0)
(1.02619 0.0371876 0)
(1.0276 0.0299164 0)
(1.02861 0.0226585 0)
(1.02957 0.0155072 0)
(1.03067 0.00849397 0)
(1.03216 0.00164368 0)
(1.03431 -0.00499496 0)
(1.03732 -0.0113169 0)
(1.04134 -0.0171656 0)
(1.04647 -0.022316 0)
(1.05272 -0.0264759 0)
(1.06001 -0.0293099 0)
(1.06813 -0.0304569 0)
(1.07672 -0.0295703 0)
(1.08529 -0.0263779 0)
(1.0932 -0.0207387 0)
(1.09977 -0.012703 0)
(1.10427 -0.00255775 0)
(1.10604 0.00915517 0)
(1.10462 0.0216611 0)
(1.09981 0.0340091 0)
(1.0917 0.0451932 0)
(1.08077 0.0542696 0)
(1.06779 0.0605004 0)
(1.05371 0.0634658 0)
(1.03956 0.0631187 0)
(1.02631 0.0597636 0)
(1.01471 0.0539684 0)
(1.00523 0.0464453 0)
(0.99811 0.0379391 0)
(0.993341 0.0291414 0)
(0.990735 0.0206338 0)
(0.98998 0.0128549 0)
(0.990696 0.00609011 0)
(0.992488 0.000484151 0)
(0.995032 -0.00392942 0)
(0.99798 -0.00728027 0)
(1.00105 -0.0096118 0)
(1.00411 -0.0111171 0)
(1.00702 -0.0119388 0)
(1.00971 -0.0122325 0)
(1.01214 -0.0121256 0)
(1.0143 -0.0117342 0)
(1.0162 -0.0111478 0)
(1.01784 -0.0104441 0)
(1.01926 -0.00967472 0)
(1.02048 -0.0088795 0)
(1.02152 -0.00808976 0)
(1.02241 -0.00732459 0)
(1.02318 -0.00659958 0)
(1.02383 -0.00592116 0)
(1.02438 -0.00529288 0)
(1.02486 -0.00471568 0)
(1.02527 -0.00418934 0)
(1.02562 -0.00371227 0)
(1.02592 -0.00328165 0)
(1.02617 -0.00289446 0)
(1.02639 -0.0025475 0)
(1.02658 -0.00223736 0)
(1.02675 -0.00196095 0)
(1.02689 -0.00171532 0)
(1.02701 -0.00149753 0)
(1.02711 -0.0013048 0)
(1.0272 -0.0011346 0)
(1.02728 -0.000984644 0)
(1.02734 -0.000852762 0)
(1.0274 -0.000737071 0)
(1.02744 -0.000635914 0)
(1.02748 -0.000547713 0)
(1.02752 -0.000471004 0)
(1.02754 -0.000404545 0)
(1.02757 -0.00034719 0)
(1.02759 -0.00029783 0)
(1.02761 -0.000255456 0)
(1.02762 -0.000219256 0)
(1.02763 -0.000188537 0)
(1.02765 -0.000162571 0)
(1.02766 -0.000140627 0)
(1.02767 -0.000122104 0)
(1.02767 -0.000106525 0)
(1.02768 -9.33173e-05 0)
(1.02769 -8.21408e-05 0)
(1.02769 -7.31364e-05 0)
(1.0277 -5.57891e-05 0)
(0.990049 0.014638 0)
(1.00021 0.0350721 0)
(1.01332 0.0461406 0)
(1.01106 0.0487949 0)
(1.01189 0.0463472 0)
(1.01653 0.0413792 0)
(1.01936 0.0352618 0)
(1.02057 0.0286036 0)
(1.02149 0.0216483 0)
(1.02242 0.0144925 0)
(1.02353 0.00718258 0)
(1.0251 -0.000238453 0)
(1.02741 -0.00769449 0)
(1.03073 -0.0150492 0)
(1.03529 -0.0220976 -2.74277e-34)
(1.04126 -0.0285423 2.74277e-34)
(1.04872 -0.0339952 0)
(1.05762 -0.0379881 0)
(1.06778 -0.0400021 0)
(1.07879 -0.0395173 0)
(1.09004 -0.0360857 0)
(1.10073 -0.029422 0)
(1.10991 -0.0194966 0)
(1.11656 -0.00661372 0)
(1.11974 0.0085463 0)
(1.11874 0.0249448 0)
(1.1132 0.0412667 0)
(1.10322 0.0560805 0)
(1.08944 0.0680318 0)
(1.07292 0.0760591 0)
(1.05504 0.079579 0)
(1.03727 0.0785768 0)
(1.02093 0.0735649 0)
(1.007 0.0654225 0)
(0.996057 0.0551938 0)
(0.988302 0.0439209 0)
(0.983623 0.0325336 0)
(0.98168 0.021782 0)
(0.981982 0.0122006 0)
(0.98398 0.00410249 0)
(0.987146 -0.00238397 0)
(0.990948 -0.00729601 0)
(0.995033 -0.0108193 0)
(0.999136 -0.0131429 0)
(1.00301 -0.0144647 0)
(1.00657 -0.0150181 0)
(1.00975 -0.0149908 0)
(1.01253 -0.0145553 0)
(1.01492 -0.0138441 0)
(1.01696 -0.0129645 0)
(1.01869 -0.0119924 0)
(1.02014 -0.0109881 0)
(1.02136 -0.00999248 0)
(1.02238 -0.00903087 0)
(1.02322 -0.00812142 0)
(1.02393 -0.00727306 0)
(1.02453 -0.00649134 0)
(1.02503 -0.00577616 0)
(1.02544 -0.00512615 0)
(1.0258 -0.00453861 0)
(1.02609 -0.00400985 0)
(1.02635 -0.00353527 0)
(1.02656 -0.00311078 0)
(1.02674 -0.00273223 0)
(1.02689 -0.00239527 0)
(1.02702 -0.00209594 0)
(1.02713 -0.00183052 0)
(1.02722 -0.00159564 0)
(1.0273 -0.0013882 0)
(1.02737 -0.00120547 0)
(1.02742 -0.0010448 0)
(1.02747 -0.000903742 0)
(1.02751 -0.000780161 0)
(1.02754 -0.00067223 0)
(1.02757 -0.000578241 0)
(1.02759 -0.000496655 0)
(1.02761 -0.000426112 0)
(1.02762 -0.000365346 0)
(1.02764 -0.000313148 0)
(1.02765 -0.000268455 0)
(1.02766 -0.000230401 0)
(1.02766 -0.000198203 0)
(1.02767 -0.000171082 0)
(1.02768 -0.000148286 0)
(1.02768 -0.000129177 0)
(1.02769 -0.00011324 0)
(1.02769 -9.98347e-05 0)
(1.0277 -8.84953e-05 0)
(1.0277 -7.9414e-05 0)
(1.02771 -6.09379e-05 0)
(0.989951 0.0142061 0)
(0.999254 0.0326281 0)
(1.01103 0.0426437 0)
(1.00743 0.0453035 0)
(1.00717 0.0434339 0)
(1.01097 0.0392101 0)
(1.01318 0.0337634 0)
(1.01394 0.0275813 0)
(1.01448 0.0208506 0)
(1.0151 0.01364 0)
(1.01593 0.00598167 0)
(1.01729 -0.00209072 0)
(1.0195 -0.0105006 0)
(1.02292 -0.0191012 0)
(1.02785 -0.0276459 -2.63152e-34)
(1.03457 -0.0357726 2.63152e-34)
(1.04328 -0.0429854 0)
(1.05401 -0.0486546 0)
(1.0666 -0.0520508 0)
(1.08064 -0.0524054 0)
(1.09539 -0.0490071 0)
(1.1098 -0.0413335 0)
(1.12259 -0.0291988 0)
(1.13232 -0.0128875 0)
(1.13761 0.0067614 0)
(1.13736 0.0283551 0)
(1.13095 0.0500671 0)
(1.11848 0.0698379 0)
(1.10077 0.0856909 0)
(1.07935 0.096067 0)
(1.05624 0.100138 0)
(1.03356 0.0979704 0)
(1.01317 0.0904401 0)
(0.996348 0.0789283 0)
(0.98374 0.0649708 0)
(0.97546 0.0500172 0)
(0.97121 0.0353034 0)
(0.970409 0.0217828 0)
(0.972306 0.0100913 0)
(0.976116 0.000538372 0)
(0.981093 -0.00677099 0)
(0.9866 -0.0120697 0)
(0.992136 -0.0155851 0)
(0.997406 -0.0176508 0)
(1.00223 -0.0185831 0)
(1.00649 -0.0186671 0)
(1.01017 -0.0181593 0)
(1.01329 -0.0172591 0)
(1.0159 -0.0161236 0)
(1.01805 -0.0148679 0)
(1.01982 -0.0135732 0)
(1.02126 -0.0122947 0)
(1.02244 -0.0110717 0)
(1.02339 -0.0099214 0)
(1.02417 -0.00885649 0)
(1.02481 -0.00788108 0)
(1.02532 -0.0069949 0)
(1.02575 -0.00619444 0)
(1.0261 -0.00547476 0)
(1.02638 -0.0048297 0)
(1.02662 -0.00425322 0)
(1.02681 -0.0037392 0)
(1.02698 -0.00328183 0)
(1.02711 -0.00287569 0)
(1.02722 -0.00251562 0)
(1.02731 -0.00219688 0)
(1.02739 -0.00191513 0)
(1.02745 -0.00166639 0)
(1.0275 -0.0014472 0)
(1.02754 -0.00125444 0)
(1.02758 -0.00108524 0)
(1.0276 -0.000936987 0)
(1.02763 -0.000807438 0)
(1.02764 -0.000694536 0)
(1.02766 -0.000596378 0)
(1.02767 -0.000511306 0)
(1.02768 -0.000437898 0)
(1.02768 -0.000374837 0)
(1.02769 -0.000320854 0)
(1.02769 -0.000274838 0)
(1.02769 -0.000235833 0)
(1.02769 -0.000202949 0)
(1.0277 -0.000175363 0)
(1.0277 -0.000152344 0)
(1.0277 -0.000133231 0)
(1.0277 -0.000117442 0)
(1.0277 -0.000104292 0)
(1.02771 -9.32472e-05 0)
(1.02771 -8.45787e-05 0)
(1.02772 -6.55155e-05 0)
(0.989871 0.0142167 0)
(0.998483 0.0312068 0)
(1.00917 0.0403589 0)
(1.00443 0.0429483 0)
(1.00314 0.0414753 0)
(1.00606 0.0378107 0)
(1.00752 0.0328929 0)
(1.00761 0.027096 0)
(1.00753 0.0205381 0)
(1.00755 0.0132391 0)
(1.0078 0.00519086 0)
(1.00861 -0.00360942 0)
(1.0104 -0.0131245 0)
(1.01359 -0.0232164 0)
(1.01862 -0.0336272 6.20393e-35)
(1.02592 -0.0439382 -6.20393e-35)
(1.03584 -0.0535389 0)
(1.04856 -0.0616111 0)
(1.06403 -0.0671525 0)
(1.08183 -0.0690448 0)
(1.10112 -0.0661825 0)
(1.12055 -0.0576619 0)
(1.13836 -0.0430103 0)
(1.15253 -0.0224133 0)
(1.161 0.00312368 0)
(1.16206 0.0317402 0)
(1.1547 0.0608692 0)
(1.13887 0.0875318 0)
(1.11569 0.108789 0)
(1.08738 0.122288 0)
(1.05696 0.126815 0)
(1.02759 0.122614 0)
(1.00191 0.111219 0)
(0.981549 0.0948409 0)
(0.967162 0.0757339 0)
(0.958648 0.0558838 0)
(0.955401 0.036906 0)
(0.956478 0.0199935 0)
(0.960745 0.00589248 0)
(0.967124 -0.00509786 0)
(0.974544 -0.0131569 0)
(0.982138 -0.0185778 0)
(0.989456 -0.0217994 0)
(0.996141 -0.0233007 0)
(1.002 -0.023546 0)
(1.00699 -0.022915 0)
(1.01115 -0.021722 0)
(1.01456 -0.0202013 0)
(1.01731 -0.0185258 0)
(1.01952 -0.0168131 0)
(1.02126 -0.0151392 0)
(1.02264 -0.0135517 0)
(1.02373 -0.0120764 0)
(1.02459 -0.0107263 0)
(1.02527 -0.00950203 0)
(1.02579 -0.00840005 0)
(1.02621 -0.00741344 0)
(1.02655 -0.00653268 0)
(1.02681 -0.0057486 0)
(1.02702 -0.00505193 0)
(1.02718 -0.00443394 0)
(1.02732 -0.0038865 0)
(1.02742 -0.00340197 0)
(1.0275 -0.00297347 0)
(1.02757 -0.00259492 0)
(1.02762 -0.00226095 0)
(1.02766 -0.00196665 0)
(1.02769 -0.00170754 0)
(1.02771 -0.00147979 0)
(1.02773 -0.00127992 0)
(1.02774 -0.00110479 0)
(1.02775 -0.000951672 0)
(1.02775 -0.000818189 0)
(1.02775 -0.000702133 0)
(1.02775 -0.000601469 0)
(1.02775 -0.000514445 0)
(1.02774 -0.000439552 0)
(1.02774 -0.000375388 0)
(1.02774 -0.000320651 0)
(1.02773 -0.000274217 0)
(1.02773 -0.000235092 0)
(1.02772 -0.000202331 0)
(1.02772 -0.000175055 0)
(1.02772 -0.000152514 0)
(1.02772 -0.00013403 0)
(1.02772 -0.000118955 0)
(1.02772 -0.000106572 0)
(1.02772 -9.63231e-05 0)
(1.02772 -8.86006e-05 0)
(1.02773 -6.95452e-05 0)
(0.989806 0.0145858 0)
(0.997849 0.030621 0)
(1.00763 0.0390973 0)
(1.00189 0.0416132 0)
(0.999651 0.0404533 0)
(1.00168 0.0372549 0)
(1.00229 0.0327987 0)
(1.00154 0.0273561 0)
(1.00062 0.020969 0)
(0.999752 0.0135903 0)
(0.999085 0.00514539 0)
(0.998969 -0.00443172 0)
(0.999893 -0.0151882 0)
(1.00241 -0.0270306 0)
(1.00713 -0.0397292 0)
(1.01466 -0.0528416 0)
(1.02561 -0.0656504 0)
(1.0404 -0.077126 0)
(1.05917 -0.0859223 0)
(1.08162 -0.0904415 0)
(1.10678 -0.0889942 0)
(1.13298 -0.0800662 0)
(1.15785 -0.0626756 0)
(1.17847 -0.0367549 0)
(1.19179 -0.00345442 0)
(1.19513 0.0347555 0)
(1.18678 0.0742511 0)
(1.16643 0.11068 0)
(1.13555 0.139595 0)
(1.09741 0.157321 0)
(1.0566 0.162005 0)
(1.018 0.154271 0)
(0.985432 0.136882 0)
(0.960891 0.113446 0)
(0.944808 0.0872407 0)
(0.936653 0.0609032 0)
(0.935337 0.0364889 0)
(0.93941 0.0154584 0)
(0.947226 -0.00130732 0)
(0.957076 -0.0137079 0)
(0.96762 -0.0221955 0)
(0.977963 -0.0272852 0)
(0.987417 -0.0297119 0)
(0.995663 -0.0302175 0)
(1.00262 -0.0293891 0)
(1.00832 -0.0277345 0)
(1.01289 -0.0256167 0)
(1.01649 -0.0233037 0)
(1.01928 -0.0209685 0)
(1.02144 -0.0187206 0)
(1.02308 -0.0166198 0)
(1.02432 -0.0146973 0)
(1.02526 -0.0129592 0)
(1.02597 -0.0114069 0)
(1.0265 -0.010028 0)
(1.0269 -0.00880625 0)
(1.02719 -0.00772665 0)
(1.02741 -0.00677456 0)
(1.02758 -0.00593529 0)
(1.0277 -0.00519593 0)
(1.02778 -0.00454459 0)
(1.02785 -0.00397091 0)
(1.02789 -0.00346595 0)
(1.02792 -0.00302135 0)
(1.02793 -0.00262999 0)
(1.02794 -0.00228574 0)
(1.02794 -0.00198316 0)
(1.02794 -0.00171745 0)
(1.02793 -0.00148449 0)
(1.02792 -0.00128056 0)
(1.02791 -0.0011023 0)
(1.02789 -0.000946818 0)
(1.02788 -0.000811612 0)
(1.02786 -0.00069435 0)
(1.02785 -0.000592934 0)
(1.02783 -0.000505563 0)
(1.02781 -0.000430635 0)
(1.0278 -0.000366661 0)
(1.02779 -0.000312304 0)
(1.02777 -0.000266428 0)
(1.02776 -0.000228038 0)
(1.02775 -0.00019618 0)
(1.02775 -0.000169954 0)
(1.02774 -0.000148584 0)
(1.02773 -0.000131368 0)
(1.02773 -0.000117616 0)
(1.02773 -0.000106595 0)
(1.02773 -9.77237e-05 0)
(1.02773 -9.15196e-05 0)
(1.02774 -7.30722e-05 0)
(0.989759 0.0152449 0)
(0.997335 0.030729 0)
(1.00636 0.0387108 0)
(0.999752 0.0411949 0)
(0.996631 0.0403336 0)
(0.99777 0.0375836 0)
(0.997459 0.0335951 0)
(0.995738 0.0285452 0)
(0.993759 0.0223937 0)
(0.991726 0.0150097 0)
(0.989778 0.00622832 0)
(0.988278 -0.00409803 0)
(0.987797 -0.0161865 0)
(0.989044 -0.0300133 0)
(0.992809 -0.0454467 8.14857e-34)
(1 -0.062081 -8.14857e-34)
(1.01155 -0.0791359 0)
(1.02829 -0.0953648 0)
(1.05072 -0.109007 0)
(1.07877 -0.117823 0)
(1.1115 -0.11927 0)
(1.14688 -0.110867 0)
(1.1817 -0.0907469 0)
(1.21179 -0.0582972 0)
(1.23255 -0.0147223 0)
(1.23982 0.0367111 0)
(1.23068 0.0909025 0)
(1.20427 0.141462 0)
(1.16239 0.181552 0)
(1.10986 0.205171 0)
(1.05398 0.209292 0)
(1.00253 0.195336 0)
(0.961139 0.168511 0)
(0.931955 0.13484 0)
(0.914659 0.0989175 0)
(0.907929 0.0640513 0)
(0.909982 0.0327709 0)
(0.918703 0.00679517 0)
(0.931596 -0.0127201 0)
(0.946249 -0.0262914 0)
(0.960976 -0.0345668 0)
(0.974629 -0.0385956 0)
(0.986529 -0.0395707 0)
(0.996468 -0.0384509 0)
(1.00448 -0.0360677 0)
(1.01077 -0.0330155 0)
(1.01559 -0.0297154 0)
(1.01921 -0.0264337 0)
(1.0219 -0.023329 0)
(1.02387 -0.0204815 0)
(1.02529 -0.0179241 0)
(1.0263 -0.0156562 0)
(1.02702 -0.0136628 0)
(1.02752 -0.0119188 0)
(1.02787 -0.0103971 0)
(1.0281 -0.00907003 0)
(1.02825 -0.00791295 0)
(1.02834 -0.00690359 0)