/*--------------------------------*- C++ -*----------------------------------*\
| =========                 |                                                 |
| \\      /  F ield         | OpenFOAM: The Open Source CFD Toolbox           |
|  \\    /   O peration     | Version:  v1806                                 |
|   \\  /    A nd           | Web:      www.OpenFOAM.com                      |
|    \\/     M anipulation  |                                                 |
\*---------------------------------------------------------------------------*/
FoamFile
{
    version     2.0;
    format      ascii;
    class       vectorField;
    location    "0.09";
    object      currentcloudofpoints;
}
// * * * * * * * * * * * * * * * * * * * * * * * * * * * * * * * * * * * * * //


648
(
(0.108704 0.184205 0.05)
(0.921651 0.636506 0.05)
(0.320386 0.660192 0.05)
(0.885044 0.378864 0.05)
(0.143626 0.243534 0.05)
(0.179038 0.318565 0.05)
(0.19323 0.401837 0.05)
(0.109747 0.381685 0.05)
(0.0746942 0.1856 0.05)
(0.258165 0.079054 0.05)
(0.353113 0.174142 0.05)
(0.337666 0.243106 0.05)
(0.320295 0.266091 0.05)
(0.314381 0.270918 0.05)
(0.298799 0.281633 0.05)
(0.267606 0.286606 0.05)
(0.221126 0.23949 0.05)
(0.267557 0.154404 0.05)
(0.268059 0.100803 0.05)
(0.143773 0.170335 0.05)
(0.18745 0.29771 0.05)
(0.211458 0.338895 0.05)
(0.174197 0.280294 0.05)
(0.134388 0.195115 0.05)
(0.131106 0.152523 0.05)
(0.121858 0.176447 0.05)
(0.308549 0.42016 0.05)
(0.554955 0.194911 0.05)
(0.710398 0.187213 0.05)
(0.795094 0.246735 0.05)
(0.841256 0.248139 0.05)
(0.905929 0.296192 0.05)
(0.878667 0.402146 0.05)
(0.714073 0.485559 0.05)
(0.505785 0.418648 0.05)
(1.03247 0.631846 0.05)
(1.05536 0.621861 0.05)
(1.05117 0.614007 0.05)
(1.04059 0.623937 0.05)
(0.758135 0.613287 0.05)
(0.700518 0.56951 0.05)
(0.699237 0.565018 0.05)
(0.728766 0.579295 0.05)
(0.77199 0.583977 0.05)
(0.821655 0.566122 0.05)
(0.915172 0.538532 0.05)
(1.03266 0.579827 0.05)
(1.00241 0.708567 0.05)
(0.864699 0.706702 0.05)
(0.761083 0.693011 0.05)
(0.664821 0.628562 0.05)
(0.678077 0.55372 0.05)
(0.707637 0.577849 0.05)
(0.824554 0.636716 0.05)
(0.963377 0.635118 0.05)
(1.04648 0.634938 0.05)
(1.05629 0.643512 0.05)
(1.04866 0.667433 0.05)
(1.03768 0.68215 0.05)
(1.04943 0.668035 0.05)
(1.04134 0.633022 0.05)
(0.579121 0.790707 0.05)
(0.312762 0.822435 0.05)
(0.0848228 0.704632 0.05)
(0.141471 0.686718 0.05)
(0.186459 0.686199 0.05)
(0.225899 0.716349 0.05)
(0.0853982 0.787483 0.05)
(0.598375 0.616383 0.05)
(0.146113 0.103196 0.05)
(0.0732457 0.345795 0.05)
(0.153431 0.353059 0.05)
(0.0733904 0.310024 0.05)
(0.0855026 0.196978 0.05)
(0.230567 0.655374 0.05)
(0.290064 0.690034 0.05)
(0.316101 0.794097 0.05)
(0.323548 0.860151 0.05)
(0.326631 0.870034 0.05)
(0.324382 0.855351 0.05)
(0.376554 0.968328 0.05)
(0.394922 0.384891 0.05)
(0.383476 0.50609 0.05)
(0.892196 0.314398 0.05)
(0.883941 0.364345 0.05)
(0.888636 0.336445 0.05)
(0.830811 0.302147 0.05)
(0.753845 0.24954 0.05)
(0.725115 0.234713 0.05)
(0.766261 0.260656 0.05)
(0.88385 0.347024 0.05)
(0.812908 0.418472 0.05)
(0.861031 0.39774 0.05)
(0.902945 0.347181 0.05)
(0.862752 0.272007 0.05)
(0.750693 0.219687 0.05)
(0.58113 0.195626 0.05)
(0.450831 0.258067 0.05)
(0.46952 0.241389 0.05)
(0.648185 0.189521 0.05)
(0.815057 0.259995 0.05)
(0.907915 0.309137 0.05)
(0.877305 0.3988 0.05)
(0.792935 0.460136 0.05)
(0.650658 0.483154 0.05)
(0.646467 0.482172 0.05)
(0.798906 0.455177 0.05)
(0.872705 0.399497 0.05)
(0.897222 0.365853 0.05)
(0.830301 0.415163 0.05)
(0.85537 0.386589 0.05)
(0.805686 0.291183 0.05)
(0.725091 0.237142 0.05)
(0.701839 0.231745 0.05)
(0.707125 0.233331 0.05)
(0.695926 0.233101 0.05)
(0.408263 0.368672 0.05)
(0.466257 1.03752 0.05)
(0.130839 0.679287 0.05)
(0.0497734 0.748843 0.05)
(0.045675 0.665784 0.05)
(0.0822846 0.677089 0.05)
(0.0942411 0.685446 0.05)
(0.196643 0.653905 0.05)
(0.432615 0.718954 0.05)
(0.0606069 0.639949 0.05)
(0.0653747 0.631301 0.05)
(0.149845 0.802693 0.05)
(0.206089 0.748096 0.05)
(0.204933 0.74597 0.05)
(0.196688 0.782154 0.05)
(0.066821 0.770966 0.05)
(0.0371723 0.674059 0.05)
(0.0419609 0.662871 0.05)
(0.0436681 0.659401 0.05)
(0.0507738 0.647474 0.05)
(0.0684618 0.627283 0.05)
(0.0834149 0.616502 0.05)
(0.0891593 0.613931 0.05)
(0.0895519 0.614716 0.05)
(0.0814464 0.620498 0.05)
(0.0629972 0.637283 0.05)
(0.0562736 0.672377 0.05)
(0.435011 0.717688 0.05)
(0.957454 0.541843 0.05)
(0.464732 0.901359 0.05)
(0.0653516 0.634964 0.05)
(0.567193 0.446392 0.05)
(0.319118 0.755969 0.05)
(0.847838 0.404819 0.05)
(0.0586849 0.639648 0.05)
(0.895339 0.352622 0.05)
(0.550515 0.785788 0.05)
(0.870448 0.327435 0.05)
(0.586889 0.196621 0.05)
(0.324307 0.83645 0.05)
(0.932015 0.724007 0.05)
(0.499316 0.408548 0.05)
(0.888406 0.700325 0.05)
(0.221941 0.742556 0.05)
(0.593836 0.596775 0.05)
(0.741362 0.207308 0.05)
(0.249887 0.65265 0.05)
(0.302243 0.654845 0.05)
(0.50987 0.26655 0.05)
(1.03977 0.632659 0.05)
(0.0908137 0.615273 0.05)
(0.197268 0.582231 0.05)
(0.325383 0.855997 0.05)
(0.316651 0.815477 0.05)
(0.847855 0.407931 0.05)
(0.847996 0.419333 0.05)
(1.05376 0.633026 0.05)
(0.761709 0.473538 0.05)
(0.759956 0.258835 0.05)
(0.881821 0.351956 0.05)
(0.858071 0.389367 0.05)
(0.757656 0.245418 0.05)
(0.280466 0.650867 0.05)
(0.10343 0.688621 0.05)
(0.84355 0.2702 0.05)
(0.866647 0.393444 0.05)
(0.870593 0.37241 0.05)
(0.864636 0.318428 0.05)
(0.999901 0.556049 0.05)
(1.05334 0.607508 0.05)
(0.09944 0.794011 0.05)
(0.425734 0.709199 0.05)
(0.582244 0.662876 0.05)
(0.532463 0.745035 0.05)
(0.539122 0.461349 0.05)
(1.02965 0.690942 0.05)
(0.0678958 0.627005 0.05)
(0.192965 0.726198 0.05)
(0.116624 0.182595 0.05)
(0.398166 0.51657 0.05)
(0.838276 0.25484 0.05)
(0.418476 0.289869 0.05)
(0.969539 0.546039 0.05)
(0.7247 0.429058 0.05)
(0.143513 0.600552 0.05)
(0.304308 0.659683 0.05)
(0.824411 0.423601 0.05)
(0.0677044 0.658501 0.05)
(0.425889 0.36501 0.05)
(0.904867 0.335388 0.05)
(0.465331 1.03131 0.05)
(0.564184 0.808833 0.05)
(0.826065 0.411166 0.05)
(0.0647538 0.634707 0.05)
(0.908996 0.352922 0.05)
(0.513228 0.250858 0.05)
(0.702422 0.671868 0.05)
(0.61236 0.819498 0.05)
(0.560434 0.696694 0.05)
(0.120977 0.190492 0.05)
(0.864739 0.41536 0.05)
(1.04772 0.632394 0.05)
(0.969738 0.557318 0.05)
(0.80389 0.620498 0.05)
(0.472683 0.88836 0.05)
(0.0510956 0.658728 0.05)
(0.953143 0.540745 0.05)
(1.05868 0.62252 0.05)
(0.31968 0.115247 0.05)
(0.124424 0.143759 0.05)
(0.250291 0.65539 0.05)
(0.320442 0.819467 0.05)
(0.758998 0.615907 0.05)
(1.04821 0.653777 0.05)
(0.0678386 0.727191 0.05)
(0.090098 0.790341 0.05)
(0.179785 0.0852243 0.05)
(0.0454668 0.275362 0.05)
(0.847504 0.290949 0.05)
(0.535022 0.74081 0.05)
(0.968629 0.681899 0.05)
(0.811579 0.633743 0.05)
(0.415239 0.360329 0.05)
(0.339525 0.917153 0.05)
(0.886434 0.297167 0.05)
(0.884787 0.292398 0.05)
(0.446698 0.366475 0.05)
(0.710393 0.682618 0.05)
(0.415291 0.504733 0.05)
(0.803897 0.279072 0.05)
(0.596685 0.189071 0.05)
(0.858878 0.255539 0.05)
(0.0807337 0.622982 0.05)
(0.256654 0.645118 0.05)
(0.782961 0.594796 0.05)
(0.868902 0.553265 0.05)
(0.288108 0.657736 0.05)
(0.429108 0.719828 0.05)
(0.242789 0.659587 0.05)
(0.425115 0.712735 0.05)
(0.313671 0.731143 0.05)
(0.367478 0.653705 0.05)
(0.0509823 0.657922 0.05)
(0.813707 0.445696 0.05)
(0.480852 0.377432 0.05)
(0.499709 0.273839 0.05)
(0.492922 0.401918 0.05)
(0.644774 0.236975 0.05)
(1.05872 0.638091 0.05)
(0.965349 0.634611 0.05)
(0.0524873 0.670486 0.05)
(0.0655137 0.63452 0.05)
(0.11461 0.606046 0.05)
(0.0860388 0.617698 0.05)
(0.33876 0.546491 0.05)
(0.593332 0.639768 0.05)
(0.0994159 0.61032 0.05)
(0.321037 0.84488 0.05)
(0.319069 0.838968 0.05)
(0.322688 0.846033 0.05)
(0.318155 0.822637 0.05)
(0.431054 1.01982 0.05)
(0.318257 0.79956 0.05)
(0.317682 0.786962 0.05)
(0.866796 0.395403 0.05)
(0.887054 0.379416 0.05)
(0.809988 0.421241 0.05)
(0.874621 0.391403 0.05)
(0.871386 0.370603 0.05)
(0.841917 0.42156 0.05)
(0.65758 0.479154 0.05)
(0.677649 0.485102 0.05)
(0.868203 0.409359 0.05)
(0.497304 0.408014 0.05)
(0.496282 0.405197 0.05)
(0.980043 0.633405 0.05)
(0.86874 0.640562 0.05)
(0.551627 0.446933 0.05)
(0.779945 0.27274 0.05)
(0.818775 0.299186 0.05)
(0.755109 0.254634 0.05)
(0.85789 0.3181 0.05)
(0.677123 0.233002 0.05)
(0.854518 0.317476 0.05)
(0.847096 0.391843 0.05)
(0.871887 0.30122 0.05)
(0.539847 0.565229 0.05)
(0.879585 0.37188 0.05)
(0.890439 0.359478 0.05)
(0.879254 0.366039 0.05)
(0.861529 0.390153 0.05)
(0.896304 0.318307 0.05)
(0.0834853 0.695175 0.05)
(0.468085 1.03463 0.05)
(0.0348917 0.717363 0.05)
(0.0333515 0.698123 0.05)
(0.0607448 0.674943 0.05)
(0.0500697 0.668248 0.05)
(0.0332479 0.70724 0.05)
(0.834116 0.412401 0.05)
(0.82554 0.407909 0.05)
(0.883341 0.378561 0.05)
(0.904347 0.340731 0.05)
(0.897866 0.300208 0.05)
(0.730428 0.203765 0.05)
(0.864508 0.273642 0.05)
(0.779444 0.270139 0.05)
(0.845076 0.308951 0.05)
(0.775024 0.267253 0.05)
(0.872921 0.323345 0.05)
(0.842491 0.309767 0.05)
(0.81575 0.415926 0.05)
(0.830529 0.40532 0.05)
(0.603783 0.809727 0.05)
(0.206285 0.751955 0.05)
(0.885336 0.640601 0.05)
(1.031 0.578569 0.05)
(1.05857 0.645521 0.05)
(0.966562 0.54306 0.05)
(0.588826 0.655344 0.05)
(0.184167 0.655502 0.05)
(0.111052 0.674935 0.05)
(0.428789 0.717684 0.05)
(0.0569771 0.645058 0.05)
(0.0645087 0.635225 0.05)
(0.414711 1.02994 0.05)
(0.0328366 0.708008 0.05)
(0.267112 0.560081 0.05)
(0.221653 0.573309 0.05)
(0.194316 0.582118 0.05)
(0.548005 0.716486 0.05)
(0.13593 0.599733 0.05)
(0.371057 0.95718 0.05)
(0.439964 1.01613 0.05)
(0.551193 0.472783 0.05)
(1.05795 0.641724 0.05)
(0.627761 0.886342 0.05)
(1.05917 0.646359 0.05)
(0.152742 0.770731 0.05)
(1.04288 0.677624 0.05)
(0.89034 0.709259 0.05)
(0.111273 0.799213 0.05)
(0.203056 0.776014 0.05)
(0.0496102 0.751854 0.05)
(0.177013 0.796792 0.05)
(0.0737797 0.622232 0.05)
(0.101412 0.796019 0.05)
(0.195172 0.718974 0.05)
(0.458723 0.252455 0.05)
(0.745015 0.214712 0.05)
(0.304884 0.46222 0.05)
(0.552973 0.580877 0.05)
(0.216001 0.361329 0.05)
(0.574529 0.579284 0.05)
(0.578818 0.576014 0.05)
(0.491334 0.225618 0.05)
(0.290954 0.447879 0.05)
(0.751712 0.217723 0.05)
(0.679611 0.18601 0.05)
(0.88605 0.275631 0.05)
(0.794224 0.250797 0.05)
(0.614794 0.188998 0.05)
(1.05905 0.627088 0.05)
(1.00488 0.559607 0.05)
(1.05274 0.607428 0.05)
(0.879721 0.55415 0.05)
(1.05806 0.630498 0.05)
(0.479964 0.373315 0.05)
(0.478162 0.301389 0.05)
(0.835671 0.321244 0.05)
(0.490482 0.298494 0.05)
(0.650475 0.236761 0.05)
(0.0574572 0.644744 0.05)
(0.0740924 0.626525 0.05)
(0.109253 0.608227 0.05)
(0.0914552 0.615707 0.05)
(0.556717 0.618469 0.05)
(0.305807 0.713244 0.05)
(0.2963 0.697762 0.05)
(0.284539 0.657436 0.05)
(0.288922 0.687603 0.05)
(0.172962 0.648828 0.05)
(0.812269 0.414505 0.05)
(0.800887 0.424791 0.05)
(0.848073 0.409427 0.05)
(0.785773 0.428018 0.05)
(0.817298 0.436148 0.05)
(0.5426 0.605074 0.05)
(0.480858 0.858773 0.05)
(0.425885 1.01028 0.05)
(0.332653 0.797746 0.05)
(0.347435 0.654758 0.05)
(0.399679 0.380332 0.05)
(0.543246 0.563891 0.05)
(0.410077 1.00569 0.05)
(0.543914 0.240166 0.05)
(0.319811 0.820714 0.05)
(0.813696 0.417503 0.05)
(0.885643 0.375685 0.05)
(0.834155 0.412011 0.05)
(0.832284 0.271145 0.05)
(0.871822 0.388814 0.05)
(0.470689 0.898537 0.05)
(0.394817 1.00089 0.05)
(0.541468 0.246755 0.05)
(0.0982367 0.787609 0.05)
(0.668099 0.234354 0.05)
(0.555821 0.787692 0.05)
(0.424715 0.363183 0.05)
(1.05814 0.641138 0.05)
(0.525444 0.761402 0.05)
(1.05533 0.635338 0.05)
(0.885679 0.343946 0.05)
(0.859215 0.384518 0.05)
(0.847621 0.395159 0.05)
(0.823314 0.414433 0.05)
(0.841955 0.403643 0.05)
(0.201124 0.647965 0.05)
(0.148128 0.657489 0.05)
(0.420431 0.692507 0.05)
(0.181203 0.792502 0.05)
(0.0495029 0.661925 0.05)
(0.904579 0.36203 0.05)
(0.866926 0.411881 0.05)
(0.902322 0.293165 0.05)
(0.810751 0.454411 0.05)
(0.856054 0.256216 0.05)
(0.592814 0.194847 0.05)
(0.559895 0.581628 0.05)
(0.359877 0.371473 0.05)
(0.374245 0.501805 0.05)
(0.311581 0.457694 0.05)
(1.05814 0.65174 0.05)
(0.858989 0.696667 0.05)
(0.98182 0.716954 0.05)
(0.739825 0.680549 0.05)
(0.787797 0.691185 0.05)
(0.300352 0.708065 0.05)
(0.0621759 0.73072 0.05)
(0.552314 0.717737 0.05)
(0.110169 0.749747 0.05)
(1.05786 0.651028 0.05)
(0.592071 0.624568 0.05)
(0.493186 0.833326 0.05)
(0.600133 0.627919 0.05)
(0.460258 0.946761 0.05)
(0.456799 0.564029 0.05)
(0.118627 0.18646 0.05)
(0.278185 0.438927 0.05)
(0.12294 0.134166 0.05)
(0.473212 0.23579 0.05)
(0.146599 0.10621 0.05)
(0.908167 0.357316 0.05)
(0.798639 0.462106 0.05)
(0.540396 0.440084 0.05)
(0.503533 0.413448 0.05)
(0.737845 0.480498 0.05)
(0.806523 0.632473 0.05)
(1.05135 0.631641 0.05)
(1.02979 0.614096 0.05)
(0.898313 0.635653 0.05)
(1.02382 0.580344 0.05)
(0.914525 0.622293 0.05)
(1.05129 0.607219 0.05)
(0.852875 0.607424 0.05)
(0.809213 0.591306 0.05)
(0.197814 0.396573 0.05)
(0.0512284 0.316005 0.05)
(0.152197 0.272053 0.05)
(0.435855 0.718876 0.05)
(0.135001 0.2537 0.05)
(0.40694 0.561501 0.05)
(0.585796 0.652053 0.05)
(0.773087 0.587386 0.05)
(0.795456 0.577181 0.05)
(1.04611 0.596207 0.05)
(0.826304 0.565921 0.05)
(0.743955 0.252297 0.05)
(0.525074 0.25427 0.05)
(0.862283 0.553006 0.05)
(0.182925 0.0996327 0.05)
(0.18717 0.0924061 0.05)
(0.274589 0.0882419 0.05)
(0.129551 0.137567 0.05)
(0.115913 0.143666 0.05)
(0.212476 0.0797177 0.05)
(0.33225 0.39454 0.05)
(0.320986 0.813957 0.05)
(0.321554 0.826411 0.05)
(0.284314 0.679817 0.05)
(0.352043 0.929399 0.05)
(0.275761 0.674798 0.05)
(0.317989 0.740728 0.05)
(0.440087 1.02107 0.05)
(0.943842 0.636979 0.05)
(1.04764 0.637014 0.05)
(0.989865 0.634681 0.05)
(1.05302 0.655768 0.05)
(0.671993 0.636633 0.05)
(0.737499 0.603966 0.05)
(1.03072 0.686076 0.05)
(0.292578 0.69745 0.05)
(0.104608 0.703187 0.05)
(0.175052 0.696274 0.05)
(0.192394 0.693895 0.05)
(0.111559 0.713797 0.05)
(0.135916 0.804778 0.05)
(0.205007 0.781726 0.05)
(0.263355 0.558982 0.05)
(0.128028 0.121467 0.05)
(0.0899885 0.160858 0.05)
(0.0460685 0.28116 0.05)
(0.18921 0.0822616 0.05)
(0.438937 1.01946 0.05)
(0.186541 0.365631 0.05)
(0.322162 0.11635 0.05)
(0.334758 0.230376 0.05)
(0.560607 0.570297 0.05)
(0.326309 0.139932 0.05)
(0.710276 0.195999 0.05)
(0.696809 0.195504 0.05)
(0.221953 0.0889996 0.05)
(0.993559 0.708153 0.05)
(1.01415 0.700849 0.05)
(0.967145 0.718832 0.05)
(1.05639 0.637341 0.05)
(0.846987 0.674673 0.05)
(1.03284 0.687849 0.05)
(0.626466 0.855045 0.05)
(0.894056 0.542365 0.05)
(0.945684 0.538967 0.05)
(0.437355 1.03739 0.05)
(1.03513 0.58237 0.05)
(0.117181 0.793992 0.05)
(0.0666878 0.770434 0.05)
(0.944767 0.724245 0.05)
(0.433701 0.364068 0.05)
(0.562167 0.550251 0.05)
(0.898102 0.309684 0.05)
(0.524365 0.762799 0.05)
(0.887188 0.37223 0.05)
(0.904448 0.323114 0.05)
(0.176017 0.087238 0.05)
(0.825955 0.695874 0.05)
(0.669622 0.651247 0.05)
(1.01597 0.565917 0.05)
(0.684228 0.558381 0.05)
(0.613669 0.935292 0.05)
(0.396781 1.0092 0.05)
(0.785184 0.626785 0.05)
(0.480659 0.865253 0.05)
(0.437113 0.36388 0.05)
(0.464413 0.539001 0.05)
(0.394764 0.387473 0.05)
(0.703788 0.221387 0.05)
(0.895739 0.353785 0.05)
(0.399125 0.383939 0.05)
(0.555052 0.195512 0.05)
(0.734012 0.200406 0.05)
(0.777259 0.238654 0.05)
(0.821097 0.249204 0.05)
(0.661231 0.186023 0.05)
(0.825002 0.251767 0.05)
(0.887208 0.272877 0.05)
(0.31197 0.105506 0.05)
(0.459338 0.993247 0.05)
(0.0662261 0.634476 0.05)
(0.350384 0.92589 0.05)
(0.116038 0.608359 0.05)
(0.0667829 0.633642 0.05)
(0.322484 0.833753 0.05)
(0.786589 0.622865 0.05)
(0.731507 0.592259 0.05)
(0.836663 0.56663 0.05)
(0.7304 0.58552 0.05)
(0.789455 0.2846 0.05)
(0.869585 0.365948 0.05)
(0.751602 0.588772 0.05)
(0.769083 0.602442 0.05)
(1.00187 0.557566 0.05)
(0.560419 0.242648 0.05)
(0.949653 0.540351 0.05)
(0.819422 0.405367 0.05)
(0.878589 0.346235 0.05)
(0.0881505 0.619218 0.05)
(0.562455 0.625213 0.05)
(0.201627 0.583364 0.05)
(0.418853 0.701156 0.05)
(0.141717 0.65973 0.05)
(0.310409 0.660206 0.05)
(1.04089 0.591169 0.05)
(1.04992 0.603261 0.05)
(0.919675 0.552628 0.05)
(0.460212 0.97148 0.05)
(0.38081 0.973475 0.05)
(0.454902 0.5195 0.05)
(0.260902 0.0798709 0.05)
(0.427416 0.727479 0.05)
(0.0723339 0.630645 0.05)
(0.466259 0.305724 0.05)
(0.465284 0.386696 0.05)
(0.462111 1.04026 0.05)
(0.339187 0.916584 0.05)
(0.117542 0.800401 0.05)
(0.0848125 0.76625 0.05)
(0.876455 0.287016 0.05)
(0.869257 0.276729 0.05)
(0.789143 0.255272 0.05)
(0.688006 0.566373 0.05)
(0.431949 0.362755 0.05)
(0.931278 0.724047 0.05)
(0.172718 0.0888656 0.05)
(0.777522 0.250479 0.05)
(0.556792 0.545293 0.05)
(0.883557 0.296607 0.05)
(0.868093 0.388853 0.05)
(0.868758 0.389685 0.05)
(0.913436 0.323327 0.05)
(0.898484 0.285944 0.05)
(0.887934 0.389699 0.05)
(1.02469 0.672784 0.05)
(0.841995 0.64219 0.05)
(0.812407 0.653703 0.05)
(0.601877 0.624706 0.05)
(0.59936 0.634496 0.05)
(0.153881 0.0987389 0.05)
(0.593985 0.963725 0.05)
(0.562417 0.481934 0.05)
(0.345244 0.93126 0.05)
(0.32908 0.398813 0.05)
(0.12128 0.147757 0.05)
(0.399391 0.31193 0.05)
)


// ************************************************************************* //
