/*--------------------------------*- C++ -*----------------------------------*\
| =========                 |                                                 |
| \\      /  F ield         | OpenFOAM: The Open Source CFD Toolbox           |
|  \\    /   O peration     | Version:  v1806                                 |
|   \\  /    A nd           | Web:      www.OpenFOAM.com                      |
|    \\/     M anipulation  |                                                 |
\*---------------------------------------------------------------------------*/
FoamFile
{
    version     2.0;
    format      ascii;
    class       volScalarField;
    location    "0.09";
    object      p;
}
// * * * * * * * * * * * * * * * * * * * * * * * * * * * * * * * * * * * * * //

dimensions      [0 2 -2 0 0 0 0];


internalField   nonuniform List<scalar> 
5400
(
66.5517
66.119
65.9049
65.8019
65.7182
65.6122
65.4527
65.1961
64.8039
64.234
63.4406
62.3748
60.9861
59.2239
57.0404
54.3936
51.2499
47.5881
43.4019
38.7025
33.5197
27.9018
21.9143
15.6367
9.1599
2.5791
-4.00867
-10.5093
-16.8346
-22.9054
-28.6521
-34.016
-38.949
-43.4136
-47.3822
-50.8369
-53.7686
-56.1766
-58.0684
-59.4582
-60.3669
-60.821
-60.8516
-60.4938
-59.7852
-58.7651
-57.4736
-55.9502
-54.2335
-52.3597
-50.3693
-48.2888
-46.148
-43.9732
-41.7877
-39.6113
-37.4612
-35.3514
-33.2936
-31.297
-29.3685
-27.5135
-25.7354
-24.0364
-22.4171
-20.8775
-19.4162
-18.0316
-16.7212
-15.4822
-14.3113
-13.2053
-12.1604
-11.1731
-10.2395
-9.35592
-8.51861
-7.72384
-6.968
-6.24759
-5.55911
-4.89918
-4.26456
-3.65202
-3.05844
-2.48076
-1.91601
-1.3613
-0.813776
-0.270702
66.1246
65.9929
65.889
65.8245
65.7675
65.6868
65.5482
65.3205
64.9629
64.4321
63.6809
62.6591
61.3143
59.5939
57.4474
54.83
51.7053
48.0497
43.8547
39.1303
33.9062
28.232
22.1757
15.8204
9.25874
2.59158
-4.08061
-10.6607
-17.0586
-23.1932
-28.9945
-34.4035
-39.3722
-43.8634
-47.85
-51.3145
-54.2482
-56.6512
-58.5311
-59.9031
-60.7886
-61.2151
-61.2145
-60.8227
-60.0784
-59.022
-57.6942
-56.1358
-54.3863
-52.4845
-50.4608
-48.3518
-46.1861
-43.9895
-41.785
-39.5924
-37.4287
-35.3078
-33.241
-31.2374
-29.3038
-27.4452
-25.6649
-23.9649
-22.3456
-20.8067
-19.347
-17.9643
-16.6563
-15.4201
-14.2523
-13.1494
-12.1079
-11.1239
-10.1937
-9.31357
-8.47958
-7.68811
-6.93553
-6.21828
-5.53288
-4.87597
-4.2443
-3.63465
-3.04386
-2.46889
-1.90685
-1.35485
-0.810051
-0.269517
65.9602
65.9187
65.8813
65.8648
65.8534
65.8214
65.7409
65.5801
65.2988
64.8525
64.1922
63.2648
62.0142
60.3831
58.3158
55.7613
52.6773
49.0341
44.8191
40.0393
34.7244
28.9263
22.718
16.1898
9.444
2.58913
-4.26593
-11.0173
-17.5697
-23.8393
-29.7543
-35.2555
-40.2956
-44.8383
-48.8575
-52.3372
-55.2699
-57.6568
-59.507
-60.8371
-61.6702
-62.0353
-61.9664
-61.5014
-60.6808
-59.547
-58.1424
-56.5092
-54.6881
-52.7183
-50.634
-48.4691
-46.2531
-44.0123
-41.7694
-39.5441
-37.353
-35.2097
-33.1252
-31.108
-29.1644
-27.2991
-25.5148
-23.8131
-22.1942
-20.6575
-19.2011
-17.8229
-16.5203
-15.2901
-14.1288
-13.0328
-11.9983
-11.0214
-10.0984
-9.22538
-8.39846
-7.6139
-6.86806
-6.15741
-5.47846
-4.82782
-4.20224
-3.59854
-3.01358
-2.44433
-1.88793
-1.34148
-0.802147
-0.266926
65.8298
65.8374
65.8587
65.9039
65.9608
66.0071
66.0182
65.9627
65.8007
65.4863
64.9682
64.1891
63.0874
61.5988
59.6589
57.2071
54.1911
50.5719
46.3289
41.4645
36.0076
30.0138
23.5644
16.7619
9.72302
2.57069
-4.57274
-11.5925
-18.3856
-24.8634
-30.9525
-36.5934
-41.7403
-46.3586
-50.4245
-53.9239
-56.8514
-59.2102
-61.0115
-62.2741
-63.0236
-63.2917
-63.1154
-62.5356
-61.5961
-60.3418
-58.8181
-57.0694
-55.138
-53.0656
-50.8873
-48.637
-46.3448
-44.0369
-41.7362
-39.4618
-37.2299
-35.0534
-32.9426
-30.9053
-28.9473
-27.0723
-25.2826
-23.579
-21.9613
-20.4281
-18.9774
-17.6065
-16.3124
-15.0916
-13.9404
-12.855
-11.8313
-10.8655
-9.95346
-9.09135
-8.27518
-7.50115
-6.76561
-6.065
-5.39585
-4.75474
-4.13843
-3.54377
-2.96767
-2.40709
-1.85919
-1.3211
-0.790029
-0.262921
65.7007
65.7388
65.8148
65.9313
66.0753
66.2269
66.3621
66.4505
66.4522
66.32
65.9993
65.4279
64.537
63.2523
61.4976
59.1984
56.2875
52.7115
48.4377
43.4606
37.807
31.5379
24.747
17.5548
10.0996
2.52678
-5.02152
-12.4148
-19.5396
-26.3015
-32.6253
-38.4526
-43.74
-48.4563
-52.5809
-56.1025
-59.0188
-61.3354
-63.0662
-64.2331
-64.8649
-64.9973
-64.6712
-63.9319
-62.8275
-61.407
-59.7194
-57.8124
-55.731
-53.5191
-51.2129
-48.8471
-46.4524
-44.0549
-41.6771
-39.3377
-37.0519
-34.8318
-32.6869
-30.6239
-28.6476
-26.7607
-24.9648
-23.2596
-21.6442
-20.1166
-18.6742
-17.3136
-16.0314
-14.8237
-13.6865
-12.6156
-11.6067
-10.6559
-9.75883
-8.91145
-8.10977
-7.34997
-6.62835
-5.94126
-5.28522
-4.65689
-4.05303
-3.47049
-2.9062
-2.3572
-1.82065
-1.29376
-0.773721
-0.257505
65.538
65.6029
65.734
65.9308
66.1804
66.4603
66.7508
67.0216
67.2329
67.336
67.2729
66.9758
66.3667
65.3591
63.8608
61.7782
59.0232
55.5212
51.221
46.1043
40.1939
33.5573
26.3059
18.5869
10.5704
2.43446
-5.65065
-13.5331
-21.0861
-28.2093
-34.8272
-40.8845
-46.3427
-51.1756
-55.3674
-58.9108
-61.8066
-64.0637
-65.6993
-66.7385
-67.2146
-67.168
-66.6452
-65.6972
-64.3776
-62.7412
-60.8418
-58.7314
-56.4598
-54.068
-51.5988
-49.087
-46.5634
-44.0539
-41.5804
-39.1606
-36.8088
-34.5359
-32.35
-30.2565
-28.2589
-26.3589
-24.5566
-22.8509
-21.2398
-19.7204
-18.2893
-16.9426
-15.6762
-14.4856
-13.3665
-12.3142
-11.3244
-10.3927
-9.51455
-8.68585
-7.90252
-7.16069
-6.45656
-5.78646
-5.14691
-4.53463
-3.94638
-3.37897
-2.82945
-2.29491
-1.77252
-1.25956
-0.753274
-0.250699
65.3076
65.4017
65.592
65.8773
66.2475
66.6801
67.1562
67.6478
68.1155
68.51
68.7704
68.8225
68.5782
67.936
66.7833
65.0012
62.4726
59.0923
54.7813
49.5009
43.2654
36.1506
28.2926
19.8776
11.1228
2.25322
-6.52134
-15.0212
-23.104
-30.6653
-37.6323
-43.9574
-49.6102
-54.5728
-58.8354
-62.3956
-65.258
-67.4345
-68.9456
-69.8206
-70.0976
-69.8232
-69.0509
-67.8389
-66.2484
-64.3412
-62.1775
-59.814
-57.3053
-54.6956
-52.0283
-49.3399
-46.6611
-44.0177
-41.4306
-38.9164
-36.4876
-34.1537
-31.9211
-29.7937
-27.7732
-25.8598
-24.0523
-22.3481
-20.7441
-19.2363
-17.8204
-16.4917
-15.2453
-14.0763
-12.9797
-11.9507
-10.9842
-10.0758
-9.22088
-8.41495
-7.65391
-6.93379
-6.25075
-5.60111
-4.98142
-4.38838
-3.81879
-3.26954
-2.7377
-2.22048
-1.71502
-1.21866
-0.728784
-0.242541
64.9803
65.1061
65.3602
65.741
66.2473
66.8529
67.543
68.2923
69.0637
69.8083
70.4635
70.9493
71.1668
70.9973
70.3032
68.9329
66.7292
63.5437
59.2552
53.7921
47.1533
39.4228
30.772
21.4448
11.7282
1.91589
-7.7274
-16.9866
-25.704
-33.7749
-41.1371
-47.7571
-53.6189
-58.7158
-63.0465
-66.6136
-69.4251
-71.4957
-72.8485
-73.517
-73.545
-72.9866
-71.9041
-70.3653
-68.441
-66.2019
-63.716
-61.0469
-58.2529
-55.3826
-52.4806
-49.5844
-46.7247
-43.9264
-41.209
-38.5874
-36.0724
-33.6711
-31.3879
-29.2246
-27.1811
-25.2556
-23.4451
-21.7456
-20.1525
-18.6606
-17.2646
-15.9587
-14.7373
-13.5948
-12.5257
-11.5246
-10.5862
-9.70561
-8.87814
-8.09918
-7.36442
-6.66984
-6.01157
-5.38591
-4.78939
-4.21874
-3.67086
-3.14272
-2.6314
-2.13417
-1.64833
-1.17125
-0.700411
-0.233093
64.5285
64.6824
65.0043
65.4984
66.1429
66.9374
67.8664
68.9081
70.0292
71.184
72.3099
73.3235
74.1159
74.5496
74.4579
73.6473
71.9073
69.0274
64.823
59.1692
52.0354
43.5133
33.8238
23.2982
12.3289
1.31195
-9.4123
-19.5859
-29.039
-37.6781
-45.4639
-52.3888
-58.459
-63.6842
-68.0725
-71.6313
-74.3703
-76.3051
-77.4606
-77.8737
-77.5947
-76.6869
-75.2235
-73.2851
-70.9547
-68.3146
-65.4423
-62.4113
-59.2793
-56.1034
-52.9291
-49.794
-46.7283
-43.7554
-40.8928
-38.1531
-35.5443
-33.0712
-30.7355
-28.5365
-26.4716
-24.5369
-22.7273
-21.0372
-19.4601
-17.9895
-16.6189
-15.3414
-14.1506
-13.0402
-12.0038
-11.0358
-10.1304
-9.28253
-8.48704
-7.73926
-7.03484
-6.36964
-5.73975
-5.14149
-4.57146
-4.02641
-3.50327
-2.99912
-2.51106
-2.03647
-1.5728
-1.11756
-0.668307
-0.222407
63.9004
64.0876
64.48
65.0834
65.8842
66.8832
68.072
69.4362
70.9496
72.5731
74.2485
75.8926
77.3894
78.5838
79.2761
79.2222
78.1409
75.7341
71.7209
65.8888
58.1527
48.6061
37.5418
25.4252
12.8137
0.258089
-11.7975
-23.0467
-33.3204
-42.5573
-50.7636
-57.9757
-64.2333
-69.5668
-73.994
-77.5244
-80.1659
-81.9316
-82.8456
-82.9471
-82.2932
-80.9584
-79.0307
-76.6069
-73.7866
-70.666
-67.3353
-63.8762
-60.3531
-56.8255
-53.3407
-49.9363
-46.641
-43.4757
-40.4552
-37.5889
-34.8817
-32.335
-29.9474
-27.715
-25.6326
-23.6936
-21.8907
-20.2161
-18.6615
-17.2189
-15.8803
-14.6378
-13.484
-12.4116
-11.4139
-10.4845
-9.6174
-8.80704
-8.0482
-7.33606
-6.66613
-6.03421
-5.43634
-4.86892
-4.32861
-3.81224
-3.31674
-2.83929
-2.37721
-1.9279
-1.48892
-1.05793
-0.632629
-0.210531
63.0654
63.2858
63.7493
64.464
65.4265
66.6341
68.0957
69.8046
71.7456
73.891
76.1929
78.5749
80.9206
83.0618
84.7659
85.7291
85.5803
83.8986
80.2569
74.2975
65.8331
54.9438
42.0265
27.7615
12.9716
-1.55323
-15.2287
-27.7033
-38.8386
-48.6468
-57.2171
-64.6567
-71.0525
-76.4583
-80.8982
-84.3773
-86.8954
-88.4572
-89.0811
-88.8064
-87.6974
-85.8425
-83.3499
-80.3385
-76.9292
-73.2371
-69.3704
-65.41
-61.4358
-57.5083
-53.6752
-49.9723
-46.4257
-43.053
-39.865
-36.867
-34.0599
-31.4409
-29.0048
-26.7444
-24.651
-22.715
-20.9266
-19.2754
-17.7514
-16.3447
-15.0459
-13.8458
-12.7361
-11.7085
-10.7558
-9.87101
-9.04777
-8.28017
-7.5628
-6.89074
-6.25942
-5.66463
-5.10247
-4.56935
-4.06195
-3.57721
-3.11217
-2.66411
-2.23054
-1.809
-1.39712
-0.992694
-0.593608
-0.197543
61.9871
62.239
62.7705
63.5932
64.7101
66.1258
67.8636
69.928
72.3191
75.0276
78.0243
81.2493
84.5973
87.8987
90.8935
93.2139
94.3784
93.8002
90.8299
84.8655
75.5258
62.8419
47.3622
30.1269
12.4025
-4.64638
-20.2545
-34.0504
-45.9925
-56.2415
-65.0319
-72.5781
-79.027
-84.4532
-88.8755
-92.2828
-94.6551
-95.9797
-96.2624
-95.5381
-93.8783
-91.3899
-88.2089
-84.485
-80.3681
-76.0017
-71.5002
-66.9645
-62.4774
-58.1015
-53.8832
-49.8552
-46.0391
-42.4478
-39.0868
-35.956
-33.0513
-30.3652
-27.8878
-25.6078
-23.5127
-21.5896
-19.8257
-18.2081
-16.7245
-15.3632
-14.1131
-12.964
-11.9062
-10.9309
-10.03
-9.19608
-8.42251
-7.70306
-7.03214
-6.40475
-5.81628
-5.26251
-4.73963
-4.2441
-3.77269
-3.32245
-2.89061
-2.47458
-2.07192
-1.68041
-1.29785
-0.922203
-0.551481
-0.183532
60.6292
60.9089
61.5014
62.4228
63.6835
65.3035
67.2946
69.7077
72.552
75.8443
79.5848
83.7428
88.2421
92.9357
97.5513
101.661
104.661
105.751
103.947
98.2316
87.8461
72.6954
53.5502
32.0854
10.3407
-9.93316
-27.7598
-42.8267
-55.3251
-65.7004
-74.4295
-81.8766
-88.2534
-93.637
-98.0157
-101.341
-103.556
-104.618
-104.509
-103.253
-100.927
-97.6621
-93.6375
-89.0467
-84.0773
-78.9131
-73.6743
-68.4795
-63.4151
-58.543
-53.9056
-49.5299
-45.4311
-41.6151
-38.0805
-34.8209
-31.8259
-29.0822
-26.5748
-24.2873
-22.2033
-20.3059
-18.5791
-17.0072
-15.5757
-14.2708
-13.0798
-11.9911
-10.994
-10.079
-9.23732
-8.46107
-7.74324
-7.07745
-6.45801
-5.8799
-5.3385
-4.82961
-4.34947
-3.89474
-3.4623
-3.04934
-2.65326
-2.27164
-1.90222
-1.54291
-1.19175
-0.846887
-0.506486
-0.168571
58.9589
59.2605
59.9023
60.9047
62.286
64.0758
66.3161
69.0353
72.3072
76.1723
80.6721
85.818
91.586
97.9031
104.51
110.936
116.46
120.054
120.228
115.256
103.612
84.9299
60.3093
32.6268
5.29622
-19.0369
-39.1904
-55.1298
-67.5521
-77.4326
-85.6117
-92.6473
-98.7925
-104.077
-108.404
-111.658
-113.724
-114.516
-113.973
-112.096
-108.962
-104.736
-99.6676
-94.0173
-88.0408
-81.9134
-75.8182
-69.8752
-64.1693
-58.7568
-53.6719
-48.9325
-44.5442
-40.5039
-36.8019
-33.4235
-30.3511
-27.5647
-25.0431
-22.7646
-20.708
-18.8524
-17.1782
-15.6667
-14.3009
-13.065
-11.9446
-10.9268
-10.0001
-9.15405
-8.37931
-7.66771
-7.01196
-6.40556
-5.84276
-5.3185
-4.82827
-4.36797
-3.93398
-3.52314
-3.13251
-2.75941
-2.40145
-2.05646
-1.7224
-1.39734
-1.0795
-0.76722
-0.458881
-0.152735
56.949
57.2645
57.9388
58.997
60.4644
62.3815
64.8048
67.8005
71.4316
75.813
81.0405
87.1697
94.2368
102.376
111.356
120.685
129.573
136.911
140.388
137.16
124.002
99.9665
66.6284
29.4141
-5.70414
-34.917
-57.0016
-72.6262
-83.6162
-91.8486
-98.7226
-104.904
-110.64
-115.82
-120.122
-123.353
-125.307
-125.853
-124.858
-122.259
-118.133
-112.712
-106.339
-99.3822
-92.1501
-84.903
-77.8272
-71.0473
-64.6409
-58.6515
-53.0996
-47.9893
-43.3138
-39.0583
-35.2026
-31.7228
-28.5926
-25.7842
-23.2697
-21.0215
-19.0129
-17.2187
-15.6154
-14.1812
-12.8966
-11.7439
-10.707
-9.7719
-8.92589
-8.15793
-7.45834
-6.81867
-6.23147
-5.69017
-5.18909
-4.7232
-4.28815
-3.88005
-3.49548
-3.13143
-2.78519
-2.45434
-2.13673
-1.83042
-1.53359
-1.24456
-0.961738
-0.683655
-0.408943
-0.136118
54.5808
54.8999
55.5855
56.6662
58.1741
60.1597
62.6954
65.8698
69.7885
74.5415
80.4125
87.4665
95.8889
105.845
117.32
130.019
143.159
156.144
165.051
165.351
149.901
116.73
68.9923
17.2494
-28.9251
-63.2203
-84.9217
-97.4093
-104.373
-109.228
-113.597
-118.439
-123.689
-128.852
-133.297
-136.557
-138.459
-138.851
-137.445
-134.037
-128.675
-121.709
-113.661
-105.053
-96.3099
-87.7484
-79.5611
-71.8621
-64.7078
-58.1188
-52.0937
-46.6181
-41.6688
-37.2173
-33.2312
-29.6757
-26.5147
-23.712
-21.2319
-19.0402
-17.1045
-15.395
-13.884
-12.5469
-11.3613
-10.3076
-9.36823
-8.52805
-7.77368
-7.09356
-6.4777
-5.91743
-5.40525
-4.93471
-4.5003
-4.0972
-3.72119
-3.36869
-3.03653
-2.72193
-2.42248
-2.13606
-1.86081
-1.59499
-1.33706
-1.08556
-0.839178
-0.596697
-0.356987
-0.118834
51.8469
52.1575
52.8288
53.8916
55.3832
57.3622
59.9143
63.1492
67.2087
72.2706
78.4803
86.2098
95.73
107.373
121.393
137.873
156.477
176.035
192.887
196.971
174.494
123.092
51.1731
-17.6283
-77.64
-115.008
-130.815
-133.053
-131.275
-129.622
-130.327
-132.999
-137.715
-143.244
-148.107
-151.403
-153.294
-153.772
-152.141
-147.869
-140.925
-131.886
-121.632
-110.918
-100.334
-90.2528
-80.8308
-72.15
-64.2235
-57.0334
-50.5479
-44.7283
-39.5325
-34.9162
-30.8335
-27.2375
-24.0815
-21.3196
-18.9078
-16.8045
-14.9714
-13.3737
-11.9798
-10.7617
-9.69474
-8.75729
-7.93069
-7.19876
-6.54757
-5.96524
-5.44167
-4.96821
-4.53749
-4.14331
-3.7804
-3.44423
-3.13089
-2.83708
-2.56004
-2.29731
-2.0468
-1.80672
-1.5755
-1.35172
-1.13407
-0.921398
-0.712669
-0.506953
-0.303381
-0.101006
48.7532
49.042
49.6701
50.6693
52.0788
53.9613
56.4101
59.5479
63.5384
68.5209
74.8941
82.9305
93.0683
105.91
122.01
141.971
166.116
193.366
216.924
216.257
171.42
85.1831
-30.7726
-121.063
-188.113
-209.074
-200.13
-180.817
-163.117
-152.311
-146.313
-147.058
-152.047
-159.135
-165.159
-168.045
-169.716
-170.885
-169.58
-164.501
-155.42
-143.484
-130.176
-116.737
-103.929
-92.1263
-81.3859
-71.7031
-63.0178
-55.256
-48.3465
-42.2233
-36.824
-32.0878
-27.9543
-24.3638
-21.2578
-18.5799
-16.2771
-14.3003
-12.6046
-11.15
-9.90093
-8.82631
-7.89926
-7.0967
-6.39894
-5.78909
-5.2529
-4.77844
-4.35574
-3.97639
-3.63338
-3.32087
-3.03395
-2.76851
-2.52109
-2.28881
-2.06932
-1.86056
-1.66082
-1.46865
-1.28283
-1.10229
-0.92605
-0.753248
-0.583148
-0.415104
-0.248528
-0.0827649
45.3209
45.5739
46.1288
47.0158
48.2724
49.9595
52.1693
55.0237
58.6798
63.3363
69.3767
77.1775
87.2861
100.322
117.279
139.334
167.598
199.173
220.337
194.845
79.8235
-76.0032
-257.933
-376.858
-420.633
-383.204
-307.006
-244.611
-202.529
-176.307
-164.266
-160.676
-165.263
-176.963
-186.238
-186.734
-186.915
-190.432
-190.877
-185.317
-173.054
-156.686
-139.054
-122.06
-106.613
-92.9757
-80.9107
-70.2785
-60.9043
-52.64
-45.371
-39.0051
-33.4615
-28.664
-24.5382
-21.0105
-18.0098
-15.4684
-13.3233
-11.5171
-9.9984
-8.72199
-7.64852
-6.74416
-5.98012
-5.33213
-4.77982
-4.30608
-3.89673
-3.54013
-3.22668
-2.94848
-2.69904
-2.47306
-2.26619
-2.07485
-1.8962
-1.72787
-1.56796
-1.41487
-1.26733
-1.12431
-0.984966
-0.848591
-0.714573
-0.582388
-0.451597
-0.321845
-0.192839
-0.0642434
41.5866
41.7906
42.2434
42.9711
44.0048
45.3971
47.2296
49.612
52.6862
56.6198
61.8211
68.6446
77.6409
89.5598
105.345
126.259
154.265
181.285
184.533
90.9791
-136.264
-440.711
-708.93
-849.754
-805.135
-641.061
-453.24
-318.614
-244.758
-200.789
-173.635
-167.943
-173.859
-196.004
-216.98
-208.681
-202.175
-212.662
-218.375
-213.168
-195.506
-171.773
-147.686
-126.054
-107.638
-92.2853
-79.028
-67.6159
-57.6974
-49.0437
-41.5064
-34.9772
-29.3639
-24.5781
-20.5315
-17.1363
-14.3074
-11.9643
-10.0334
-8.4486
-7.15172
-6.09255
-5.22826
-4.52273
-3.94583
-3.47265
-3.08265
-2.75902
-2.48813
-2.25897
-2.06266
-1.89205
-1.74144
-1.6063
-1.48299
-1.36866
-1.26111
-1.15864
-1.05986
-0.963696
-0.86938
-0.776355
-0.684205
-0.592609
-0.501318
-0.410157
-0.319019
-0.227868
-0.136722
-0.0455784
37.6024
37.7462
38.072
38.5988
39.3471
40.354
41.6805
43.4117
45.672
48.4538
52.3008
57.3556
64.051
72.9419
84.7288
100.652
119.731
133.945
111.435
-33.0994
-375.939
-902.693
-1287.93
-1444.27
-1281.68
-899.531
-588.414
-403.244
-284.952
-212.7
-177.976
-184.614
-198.988
-230.34
-271.302
-256.566
-223.021
-241.332
-258.917
-255.273
-226.478
-188.832
-154.551
-127.189
-106.049
-89.2657
-75.3198
-63.478
-53.2428
-44.3489
-36.6512
-30.0497
-24.4529
-19.7647
-15.8828
-12.7033
-10.1248
-8.05252
-6.40098
-5.09489
-4.06949
-3.26997
-2.65061
-2.17375
-1.80872
-1.53067
-1.31964
-1.15968
-1.03822
-0.945336
-0.873233
-0.815861
-0.768583
-0.727833
-0.690908
-0.655814
-0.621128
-0.585832
-0.54919
-0.510724
-0.470212
-0.427613
-0.382976
-0.336388
-0.287973
-0.237909
-0.186445
-0.133895
-0.0806096
-0.0269166
33.4335
33.5093
33.6899
33.985
34.4002
34.9503
35.6638
36.5789
37.7455
39.203
41.1474
43.6824
46.9308
50.9467
55.3489
59.0617
60.4371
52.7822
10.572
-139.549
-520.645
-1142.93
-1623.02
-1805.45
-1557
-1106.67
-715.126
-469.008
-329.369
-239.909
-208.442
-260.242
-339.297
-383.92
-428.669
-393.368
-319.851
-305.073
-334.214
-328.516
-272.6
-205.59
-155.675
-122.723
-100.356
-83.2995
-69.5157
-57.7459
-47.4627
-38.478
-30.7216
-24.1385
-18.652
-14.1602
-10.5439
-7.67855
-5.44292
-3.72537
-2.42719
-1.4637
-0.763888
-0.26917
0.0680405
0.285846
0.414429
0.477574
0.493869
0.477637
0.439814
0.388729
0.330649
0.27017
0.210598
0.1543
0.102878
0.0573035
0.0181174
-0.0144386
-0.0403521
-0.0598212
-0.073223
-0.0810425
-0.0838034
-0.0820292
-0.0762446
-0.0670067
-0.0549338
-0.0406954
-0.0249717
-0.00841768
29.1551
29.1593
29.1858
29.2334
29.2897
29.3424
29.3807
29.3874
29.3357
29.1866
28.8914
28.365
27.3376
25.3288
20.7641
9.01644
-14.981
-53.9668
-131.059
-283.811
-621.861
-1161.02
-1616.88
-1768.62
-1528.22
-1142.97
-777.361
-550.062
-411.589
-318.409
-317.678
-459.173
-558.746
-641.172
-689.501
-641.069
-530.506
-465.77
-481.016
-443.83
-326.441
-209.948
-144.346
-109.21
-88.7024
-74.0455
-61.6891
-50.5257
-40.3954
-31.4007
-23.6462
-17.1583
-11.8812
-7.7002
-4.46976
-2.03599
-0.25182
1.0146
1.87634
2.42734
2.74394
2.88704
2.90449
2.83334
2.70195
2.53186
2.33923
2.13594
1.93062
1.72944
1.53664
1.35502
1.18629
1.03138
0.890637
0.763879
0.650641
0.550286
0.462036
0.384972
0.318087
0.26035
0.210753
0.168322
0.132101
0.101127
0.0744083
0.0509332
0.0297084
0.00975714
24.8469
24.7812
24.6558
24.458
24.1564
23.7097
23.0649
22.1438
20.8323
18.9643
16.2931
12.4171
6.60788
-2.42142
-17.5402
-48.4746
-113.815
-224.451
-342.933
-480.814
-705.046
-1048.29
-1370.25
-1502.14
-1354.34
-1084.38
-822.552
-660.889
-531.552
-484.54
-524.989
-715.435
-909.167
-1034.3
-1069.27
-1027.81
-909.512
-761.189
-652.28
-554.282
-383.97
-197.47
-113.498
-82.9311
-71.5303
-62.5205
-52.6368
-42.2558
-32.198
-23.1059
-15.3365
-9.00195
-4.04587
-0.315989
2.38052
4.24079
5.44577
6.15102
6.48451
6.5483
6.42198
6.16649
5.82769
5.43958
5.02698
4.60778
4.19449
3.79563
3.41678
3.06135
2.7311
2.42667
2.14793
1.89417
1.66427
1.4568
1.27019
1.10286
0.953179
0.819491
0.700141
0.593526
0.498124
0.412495
0.335248
0.265018
0.200448
0.140197
0.0829668
0.0274581
20.5877
20.4592
20.1957
19.7736
19.144
18.2379
16.9617
15.1783
12.6862
9.18741
4.22411
-2.95331
-13.6839
-30.6428
-59.4403
-107.94
-214.753
-386.452
-537.889
-640.335
-725.343
-861.607
-1043.72
-1152.07
-1135.03
-1022.3
-929.27
-819.135
-668.34
-597.464
-713.172
-1054.03
-1328.35
-1394.73
-1446.19
-1443.79
-1344.08
-1091.8
-822.18
-626.65
-407.43
-173.384
-63.1487
-44.6614
-52.2261
-51.7898
-44.1196
-33.6831
-23.0512
-13.5132
-5.62737
0.492021
4.9761
8.06773
10.0404
11.153
11.6288
11.649
11.355
10.854
10.2253
9.52635
8.79799
8.06857
7.35734
6.67677
6.03449
5.43463
4.87897
4.36755
3.89927
3.4723
3.08438
2.73298
2.41535
2.12871
1.87035
1.6377
1.42824
1.23957
1.06937
0.915433
0.775718
0.648306
0.531386
0.423215
0.322087
0.226342
0.13437
0.0445464
16.4493
16.2698
15.8928
15.2858
14.3853
13.1002
11.3034
8.80874
5.34191
0.496496
-6.35068
-16.203
-30.7744
-53.2349
-90.0141
-153.426
-269.124
-432.862
-591.327
-648.421
-643.159
-639.766
-725.459
-862.582
-995.668
-1063.02
-1095.83
-995.438
-847.275
-793.354
-966.633
-1298.48
-1495.05
-1579.81
-1675.76
-1671.18
-1583.53
-1307.13
-935.585
-617.643
-361.086
-164.004
-81.977
-63.6685
-59.8268
-51.6127
-39.2198
-25.5615
-12.8847
-2.30331
5.81013
11.5762
15.3439
17.5284
18.5264
18.6767
18.249
17.4481
16.4233
15.2809
14.0941
12.9121
11.7667
10.6775
9.65557
8.70632
7.83108
7.02866
6.29626
5.63006
5.02569
4.47857
3.98413
3.53782
3.13521
2.77212
2.44467
2.14924
1.88245
1.64112
1.42225
1.22305
1.04096
0.873609
0.718774
0.574353
0.438311
0.308667
0.183507
0.0608858
12.4909
12.276
11.8187
11.0808
9.98951
8.43928
6.28191
3.29935
-0.82884
-6.57468
-14.6498
-26.164
-42.9104
-67.9615
-106.715
-168.199
-265.553
-395.697
-511.534
-513.08
-473.947
-459.65
-500.632
-612.029
-809.165
-1088.34
-1270.69
-1301.23
-1262.5
-1205.53
-1300.37
-1516.19
-1669.19
-1753.51
-1808.21
-1764
-1634.41
-1324.3
-958.539
-648.553
-417.757
-228.485
-137.836
-104.379
-81.3961
-59.048
-36.8987
-16.92
-0.775481
11.3096
19.5513
24.611
27.2415
28.1249
27.8177
26.7456
25.2188
23.4541
21.5975
19.744
17.9524
16.2571
14.6761
13.2167
11.8794
10.6604
9.55369
8.55177
7.64664
6.83017
6.09442
5.43189
4.83551
4.29868
3.81527
3.37968
2.98683
2.63208
2.31118
2.02016
1.75537
1.51347
1.2914
1.08637
0.895775
0.71716
0.548163
0.3865
0.229969
0.0763367
8.75501
8.52263
8.02356
7.21789
6.0304
4.35116
2.02556
-1.17444
-5.58371
-11.6923
-20.2266
-32.2826
-49.5293
-74.5174
-110.976
-163.451
-234.061
-318.727
-376.579
-344.418
-282.08
-315.044
-282.893
-246.007
-482.397
-982.554
-1450.23
-1711.95
-1755.86
-1700.77
-1680.76
-1752.06
-1829.08
-1850.84
-1762.97
-1629.19
-1475.3
-1216.62
-950.973
-703.561
-476.904
-325.944
-229.062
-164.779
-114.403
-71.3338
-34.4923
-5.37244
15.0209
28.6118
36.4037
40.0177
40.8248
39.8508
37.8206
35.2274
32.3957
29.5302
26.7537
24.1348
21.7072
19.4827
17.4603
15.6311
13.9827
12.5007
11.1703
9.97717
8.90763
7.94895
7.08948
6.3187
5.62703
5.0058
4.44722
3.9443
3.4908
3.08107
2.70999
2.37288
2.06549
1.78395
1.52476
1.28472
1.06087
0.850423
0.650711
0.459171
0.27335
0.0907607
5.26477
5.03318
4.53218
3.72453
2.53984
0.874934
-1.41537
-4.54637
-8.83573
-14.7488
-22.9711
-34.5306
-50.8946
-74.3215
-106.858
-152.594
-204.122
-270.65
-313.744
-313.222
-276.027
-227.667
-219.625
-138.271
-233.869
-811.139
-1458.99
-2044.81
-2377.94
-2364.47
-2057.5
-1811.34
-1751.31
-1647.42
-1449.72
-1297.36
-1159.51
-1027.14
-872.08
-724.287
-567.498
-446.478
-342.188
-243.941
-160.278
-86.2343
-28.4091
12.3965
37.3982
51.3857
57.2938
58.1529
56.1164
52.5595
48.32
43.8944
39.5669
35.4893
31.7329
28.3211
25.2496
22.4999
20.0465
17.8615
15.9172
14.1875
12.6484
11.278
10.057
8.96784
7.99535
7.12597
6.34772
5.64996
5.02328
4.45939
3.95094
3.49135
3.07474
2.69576
2.34963
2.03199
1.73895
1.46692
1.21263
0.97299
0.745059
0.52604
0.313268
0.104031
2.02344
1.80929
1.34311
0.594595
-0.494728
-2.01055
-4.07324
-6.86383
-10.6536
-15.8466
-23.0447
-33.1911
-47.6409
-68.5808
-98.2391
-139.477
-192.408
-259.259
-310.053
-340.476
-324.689
-302.632
-350.916
-374.137
-413.081
-823.919
-1475.63
-2120.95
-2490.94
-2417.72
-1913.39
-1602.54
-1481.01
-1262.09
-1037.92
-891.294
-797.502
-770.855
-755.981
-730.2
-672.413
-598.524
-494.498
-357.766
-222.643
-101.181
-12.8004
41.5155
70.0313
81.5754
82.9574
79.0665
72.8424
65.8645
58.9246
52.3965
46.4375
41.0912
36.343
32.1502
28.459
25.2131
22.359
19.8473
17.6344
15.6818
13.9562
12.4284
11.0734
9.86938
8.79759
7.84172
6.98757
6.22272
5.53632
4.91889
4.3621
3.85857
3.40172
2.98567
2.60514
2.25537
1.93209
1.63141
1.34976
1.08381
0.830403
0.586547
0.349395
0.116044
-0.983868
-1.1675
-1.56932
-2.20909
-3.12741
-4.3832
-6.05838
-8.28026
-11.2477
-15.2679
-20.8125
-28.6564
-40.3926
-57.2211
-86.3382
-122.197
-188.458
-259.855
-330.627
-394.175
-393.689
-386.593
-453.677
-603.251
-796.815
-1099.45
-1527.4
-1887.59
-1960.39
-1784.26
-1537.62
-1355.79
-1204.76
-855.487
-569.605
-472.724
-475.246
-538.346
-642.879
-744.917
-823.826
-828.232
-721.318
-536.015
-309.568
-111.755
22.7458
89.7651
116.959
120.602
113.346
102.111
90.2142
79.0334
69.0226
60.2487
52.6332
46.0503
40.3669
35.4572
31.2092
27.5254
24.3225
21.5299
19.0881
16.9469
15.0644
13.4048
11.9378
10.638
9.48336
8.45533
7.53774
6.71668
5.9801
5.31755
4.71986
4.17899
3.68781
3.23997
2.82978
2.45217
2.10256
1.77681
1.47113
1.182
0.906089
0.640246
0.381475
0.126715
-3.78669
-3.9317
-4.25015
-4.7488
-5.44631
-6.36802
-7.5465
-9.03857
-10.9469
-13.4661
-16.7333
-21.5765
-29.2422
-41.6286
-64.8555
-100.653
-173.118
-269.199
-400.486
-487.401
-489.61
-515.382
-657.982
-900.694
-1151.77
-1407.83
-1619.82
-1789.85
-1834.03
-1626.72
-1349.59
-1132.97
-1051.78
-679.919
-193.932
-107.891
-276.691
-409.778
-587.022
-793.495
-1013.23
-1135.24
-1030.21
-745.155
-388.962
-92.4462
93.216
169.8
181.985
167.95
146.645
125.421
106.699
90.9105
77.7737
66.8483
57.7226
50.0568
43.5801
38.0778
33.3788
29.3459
25.8684
22.8566
20.2375
17.951
15.9479
14.187
12.6341
11.2605
10.042
8.95797
7.99092
7.12578
6.34959
5.65114
5.02068
4.44963
3.93047
3.45649
3.02173
2.62084
2.24905
1.90205
1.57589
1.26691
0.971634
0.686805
0.409314
0.13598
-6.424
-6.52804
-6.75683
-7.1033
-7.56278
-8.12401
-8.76399
-9.45405
-10.1636
-10.8229
-11.7086
-12.934
-15.3435
-20.9423
-34.503
-65.5969
-140.877
-293.35
-513.272
-637.239
-633.347
-711.612
-931.319
-1218.15
-1442.91
-1539.53
-1624.46
-1745.19
-1788.5
-1536.74
-1118.97
-961.648
-938.617
-696.373
-333.434
-116.794
-178.375
-344.368
-580.098
-858.694
-1133.79
-1319.62
-1204.04
-835.584
-381.192
-0.647694
220.298
285.688
262.251
218.221
178.006
145.472
119.929
99.9525
84.1761
71.5385
61.2679
52.8132
45.777
39.867
34.8636
30.5984
26.9401
23.785
21.0502
18.6691
16.5872
14.7598
13.15
11.7271
10.4654
9.34307
8.34172
7.44556
6.64108
5.9166
5.26196
4.66831
4.12785
3.63367
3.17964
2.76026
2.37066
2.00641
1.66347
1.33808
1.0267
0.725986
0.432767
0.14379
-8.93813
-9.00479
-9.15098
-9.35693
-9.59659
-9.82509
-9.9664
-9.91064
-9.50881
-8.55957
-6.8704
-4.21223
-0.687933
2.68092
1.90772
-12.4548
-81.3908
-279.367
-621.301
-789.318
-757.123
-800.509
-1057.24
-1319.62
-1517.07
-1480.1
-1569.45
-1703.59
-1693.54
-1397.47
-836.314
-572.859
-527.66
-551.39
-546.403
-420.672
-346.724
-409.102
-590.536
-796.653
-986.672
-1140.09
-1118.67
-796.338
-297.57
151.998
386.779
412.652
337.828
257.831
198.899
157.272
127.037
104.504
87.2577
73.7326
62.904
54.0848
46.8018
40.7187
35.5898
31.2305
27.4996
24.287
21.5053
19.0851
16.9698
15.1133
13.4777
12.0316
10.7487
9.60664
8.58688
7.67337
6.85237
6.11206
5.44215
4.8337
4.27883
3.77058
3.30275
2.86983
2.46689
2.08949
1.73355
1.39527
1.07108
0.757636
0.451738
0.150112
-11.3685
-11.4067
-11.4893
-11.587
-11.6581
-11.6324
-11.3947
-10.7744
-9.51476
-7.25595
-3.46583
2.5732
11.6861
24.4299
40.8765
47.814
0.910067
-237.591
-643.731
-815.459
-821.785
-871.493
-1077.49
-1188.21
-1326.47
-1538.08
-1740.08
-1704.44
-1543.22
-1251.97
-608.28
-130.456
-162.576
-376.687
-574.245
-609.841
-481.025
-450.864
-495.895
-569.48
-728.41
-942.048
-1047.88
-892.043
-460.384
49.8646
364.848
420.974
344.285
258.438
197.479
155.581
125.578
103.356
86.3831
73.08
62.4284
53.75
46.5787
40.5841
35.5248
31.2201
27.5316
24.3516
21.5948
19.1931
17.0913
15.2442
13.6147
12.1719
10.89
9.74735
8.72538
7.80835
6.98275
6.23692
5.56073
4.94538
4.38309
3.86695
3.39085
2.94936
2.5376
2.15117
1.78601
1.43836
1.1047
0.781694
0.466194
0.154939
-13.746
-13.7686
-13.8152
-13.8521
-13.8299
-13.6672
-13.2303
-12.3176
-10.6231
-7.67201
-2.73651
5.26708
17.8438
37.5413
65.417
84.6206
39.4699
-160.493
-520.699
-835.656
-998.595
-1186.28
-1265.38
-1276.53
-1367.31
-1836.89
-2098.8
-1853.44
-1549.27
-1216.42
-588.35
3.43895
-52.9286
-270.992
-498.104
-580.959
-497.495
-450.807
-481.419
-522.633
-665.294
-882.003
-1028.69
-945.671
-598.304
-168.72
143.572
256.526
247.818
208.078
170.16
139.436
115.351
96.5025
81.5909
69.6228
59.8779
51.8391
45.1323
39.4828
34.6843
30.5794
27.0457
23.9865
21.3248
18.9982
16.9558
15.1559
13.5638
12.1505
10.8917
9.76692
8.75854
7.85156
7.03307
6.29188
5.6183
5.00382
4.44096
3.92309
3.44424
2.99911
2.58299
2.19159
1.82097
1.46745
1.12762
0.798216
0.476169
0.158267
-16.0886
-16.11
-16.1523
-16.1825
-16.1536
-15.9881
-15.5596
-14.6781
-13.0513
-10.244
-5.49672
2.23059
14.1075
34.0792
62.9199
77.5757
2.93502
-220.795
-573.5
-950.714
-1268.18
-1461.91
-1436.83
-1337.69
-1446.2
-2076.49
-2327.27
-2019.6
-1677.78
-1268.11
-743.908
-373.84
-266.884
-301.434
-390.596
-424.905
-405.471
-416.028
-449.954
-493.587
-628.918
-791.412
-834.189
-734.942
-512.301
-224.091
4.81098
119.067
151.836
148.048
132.609
115.238
99.2045
85.3457
73.638
63.8032
55.5279
48.5323
42.5853
37.5009
33.1303
29.3541
26.0761
23.2179
20.7155
18.516
16.5758
14.8583
13.3329
11.9737
10.7588
9.66956
8.68987
7.80593
7.00579
6.27904
5.61665
5.01062
4.4539
3.94017
3.46381
3.0198
2.60364
2.21123
1.8388
1.48284
1.14008
0.807381
0.481776
0.16016
-18.3992
-18.4334
-18.5018
-18.5772
-18.6233
-18.5805
-18.3532
-17.806
-16.749
-14.9258
-11.9882
-7.39113
-0.691674
7.95215
15.2191
5.24293
-62.7432
-255.609
-611.784
-1008.14
-1301.34
-1440.84
-1370.67
-1276.11
-1395.12
-1827.96
-2145.6
-2017.04
-1699.54
-1321.8
-874.388
-665.54
-495.761
-439.411
-413.552
-387.04
-380.687
-392.236
-413.948
-454.033
-526.511
-593.743
-586.779
-513.357
-372.29
-199.804
-51.0345
36.2026
79.9859
94.784
94.9251
88.7461
80.3908
71.756
63.6356
56.3069
49.8177
44.1212
39.1372
34.7788
30.9638
27.6185
24.6784
22.0878
19.7992
17.7719