/*--------------------------------*- C++ -*----------------------------------*\
| =========                 |                                                 |
| \\      /  F ield         | OpenFOAM: The Open Source CFD Toolbox           |
|  \\    /   O peration     | Version:  v1806                                 |
|   \\  /    A nd           | Web:      www.OpenFOAM.com                      |
|    \\/     M anipulation  |                                                 |
\*---------------------------------------------------------------------------*/
FoamFile
{
    version     2.0;
    format      ascii;
    class       surfaceScalarField;
    location    "0.09";
    object      phi;
}
// * * * * * * * * * * * * * * * * * * * * * * * * * * * * * * * * * * * * * //

dimensions      [0 3 -1 0 0 0 0];
oriented        oriented;


internalField   nonuniform List<scalar> 
10650
(
0.00286839
0.000464941
0.00234276
0.000525635
0.00197441
0.000368277
0.00177035
0.000204047
0.00169285
7.7505e-05
0.00169475
-1.88198e-06
0.0017481
-5.33458e-05
0.00183792
-8.98234e-05
0.00195797
-0.000120051
0.00210583
-0.000147859
0.00228021
-0.000174387
0.00248004
-0.000199833
0.00270339
-0.000223341
0.00294715
-0.000243758
0.0032068
-0.000259656
0.0034763
-0.000269493
0.00374805
-0.000271747
0.00401313
-0.000265086
0.00426167
-0.000248541
0.00448336
-0.000221683
0.00466813
-0.000184779
0.00480683
-0.0001387
0.00489208
-8.5246e-05
0.00491863
-2.65485e-05
0.00488448
3.41381e-05
0.00479016
9.4322e-05
0.00463904
0.000151112
0.00443693
0.000202106
0.00419146
0.00024547
0.00391144
0.000280017
0.00360622
0.000305214
0.0032851
0.000321119
0.00295684
0.000328262
0.00262933
0.000327509
0.00230939
0.000319932
0.00200268
0.000306706
0.00171368
0.000289004
0.00144574
0.000267938
0.00120119
0.000244543
0.0009815
0.000219692
0.000787278
0.000194218
0.00061855
0.000168724
0.000474802
0.000143746
0.000354889
0.000119914
0.00025774
9.71514e-05
0.000181515
7.62263e-05
0.000124464
5.70504e-05
8.48253e-05
3.96399e-05
6.07656e-05
2.40616e-05
5.07212e-05
1.00428e-05
5.19762e-05
-1.25604e-06
6.34045e-05
-1.14268e-05
8.33318e-05
-1.99225e-05
0.000110228
-2.68952e-05
0.000142721
-3.24887e-05
0.000179563
-3.6842e-05
0.00021966
-4.00928e-05
0.000262039
-4.23768e-05
0.000305857
-4.38196e-05
0.000350397
-4.45437e-05
0.000395044
-4.46577e-05
0.000439302
-4.42587e-05
0.000482743
-4.34387e-05
0.000525027
-4.2279e-05
0.00056589
-4.08545e-05
0.000605119
-3.9227e-05
0.000642569
-3.74487e-05
0.00067814
-3.55674e-05
0.00071176
-3.36197e-05
0.000743399
-3.16362e-05
0.000773052
-2.96442e-05
0.000800726
-2.76668e-05
0.000826451
-2.5722e-05
0.000850271
-2.38189e-05
0.000872237
-2.1962e-05
0.000892406
-2.01655e-05
0.000910837
-1.84334e-05
0.000927599
-1.67656e-05
0.000942757
-1.51568e-05
0.00095637
-1.36109e-05
0.000968494
-1.21264e-05
0.000979188
-1.06974e-05
0.000988504
-9.31683e-06
0.000996486
-7.98211e-06
0.00100317
-6.69156e-06
0.00100861
-5.43793e-06
0.00101281
-4.20792e-06
0.0010158
-2.99195e-06
0.00101758
-1.76972e-06
-6.16215e-07
0.00350075
0.000297525
0.00352577
0.000500732
0.00345371
0.000440358
0.00337366
0.000284084
0.00332621
0.000124941
0.00332537
-1.04458e-06
0.00336819
-9.61643e-05
0.00345018
-0.000171819
0.00356803
-0.000237902
0.0037195
-0.000299331
0.00390323
-0.00035812
0.00411752
-0.000414121
0.00436006
-0.000465881
0.00462729
-0.000510984
0.00491411
-0.000546471
0.0052137
-0.000569079
0.00551747
-0.000575514
0.00581522
-0.00056284
0.00609554
-0.000528859
0.00634637
-0.000472515
0.00655582
-0.000394229
0.00671304
-0.000295923
0.00680907
-0.000181275
0.00683783
-5.53186e-05
0.00679628
7.56888e-05
0.00668519
0.000205407
0.00650854
0.000327756
0.00627323
0.00043741
0.00598838
0.000530308
0.00566454
0.000603849
0.00531287
0.000656887
0.00494439
0.000689594
0.00456945
0.000703199
0.00419727
0.000699679
0.00383575
0.00068146
0.00349128
0.000651168
0.00316885
0.000611426
0.00287208
0.000564711
0.00260336
0.000513254
0.00236419
0.000458863
0.00215468
0.000403729
0.00197469
0.000348703
0.00182305
0.000295391
0.00169853
0.000244434
0.00159915
0.000196532
0.00152334
0.000152035
0.0014686
0.000111793
0.00143278
7.54607e-05
0.00141362
4.3218e-05
0.00140867
1.49931e-05
0.00141655
-9.13954e-06
0.00143484
-2.97089e-05
0.00146178
-4.68628e-05
0.00149575
-6.08606e-05
0.00153526
-7.19909e-05
0.00157898
-8.05586e-05
0.00162574
-8.68545e-05
0.00167452
-9.11627e-05
0.00172445
-9.37541e-05
0.00177478
-9.48749e-05
0.00182488
-9.47603e-05
0.00187425
-9.3619e-05
0.00192246
-9.16425e-05
0.00196918
-8.89967e-05
0.00201416
-8.58243e-05
0.00205719
-8.22561e-05
0.00209814
-7.84013e-05
0.00213693
-7.43519e-05
0.00217351
-7.01866e-05
0.00220785
-6.59701e-05
0.00223997
-6.17559e-05
0.00226989
-5.75838e-05
0.00229766
-5.34849e-05
0.00232333
-4.94849e-05
0.00234697
-4.56011e-05
0.00236865
-4.18493e-05
0.00238845
-3.8227e-05
0.00240643
-3.47508e-05
0.00242268
-3.14043e-05
0.00243727
-2.81978e-05
0.00245025
-2.51135e-05
0.0024617
-2.21474e-05
0.00247168
-1.92915e-05
0.00248022
-1.65357e-05
0.00248739
-1.38669e-05
0.00249322
-1.12717e-05
0.00249775
-8.73541e-06
0.00250101
-6.24705e-06
0.00250303
-3.78926e-06
-1.36843e-06
0.00349604
0.000134753
0.00366123
0.000335558
0.00374979
0.000351811
0.00378392
0.000249959
0.00379964
0.000109213
0.00382508
-2.6497e-05
0.0038754
-0.000146482
0.00395668
-0.000253115
0.00407111
-0.000352329
0.00421947
-0.000447699
0.00440179
-0.00054044
0.00461739
-0.000629719
0.00486451
-0.000712998
0.00514006
-0.000786533
0.00543919
-0.000845608
0.00575507
-0.000884951
0.00607873
-0.00089917
0.00639922
-0.000883326
0.00670395
-0.000833589
0.00697935
-0.000747907
0.0072119
-0.000626783
0.00738887
-0.000472893
0.0074997
-0.000292107
0.00753713
-9.27493e-05
0.00749772
0.000115095
0.00738213
0.000320993
0.00719499
0.000514885
0.00694429
0.000688099
0.00664051
0.00083408
0.00629563
0.000948725
0.00592214
0.00103037
0.00553225
0.00107949
0.0051372
0.00109826
0.00474684
0.00109004
0.00436944
0.00105886
0.0040116
0.00100901
0.0036783
0.00094472
0.00337307
0.000869933
0.00309815
0.000788173
0.00285466
0.000702355
0.00264269
0.000615687
0.00246187
0.000529521
0.00231062
0.000446638
0.00218756
0.000367494
0.00209062
0.000293468
0.00201744
0.000225218
0.00196623
0.000163005
0.00193406
0.00010762
0.00191866
5.86103e-05
0.00191771
1.59419e-05
0.00192922
-2.06521e-05
0.00195108
-5.15734e-05
0.00198143
-7.72088e-05
0.00201857
-9.80023e-05
0.002061
-0.000114418
0.00210738
-0.000126931
0.00215653
-0.000136002
0.00220744
-0.000142071
0.00225925
-0.000145556
0.00231122
-0.000146843
0.00236275
-0.000146288
0.00241334
-0.000144209
0.00246259
-0.000140891
0.00251019
-0.000136592
0.00255589
-0.000131528
0.00259952
-0.00012589
0.00264097
-0.000119847
0.00268015
-0.000113535
0.00271704
-0.000107071
0.00275162
-0.000100549
0.00278392
-9.40484e-05
0.00281397
-8.76288e-05
0.00284183
-8.13384e-05
0.00286756
-7.52115e-05
0.00289124
-6.92708e-05
0.00291294
-6.35415e-05
0.00293273
-5.80234e-05
0.00295071
-5.2726e-05
0.00296694
-4.76386e-05
0.0029815
-4.27616e-05
0.00299447
-3.80786e-05
0.0030059
-3.35796e-05
0.00301585
-2.92507e-05
0.00302439
-2.50749e-05
0.00303155
-2.10319e-05
0.00303738
-1.7105e-05
0.00304192
-1.32752e-05
0.0030452
-9.52494e-06
0.00304725
-5.83739e-06
-2.14004e-06
0.00342328
4.47922e-05
0.00356738
0.000191439
0.00368244
0.000236745
0.00375711
0.000175295
0.00380748
5.88331e-05
0.0038555
-7.45222e-05
0.00391726
-0.000208254
0.00400306
-0.000338924
0.00411861
-0.000467886
0.0042674
-0.000596488
0.00445146
-0.000724498
0.00467161
-0.000849873
0.00492736
-0.00096875
0.00521651
-0.00107568
0.00553479
-0.00116388
0.00587546
-0.00122562
0.00622913
-0.00125284
0.00658376
-0.00123795
0.006925
-0.00117482
0.00723692
-0.00105983
0.007503
-0.000892862
0.00770839
-0.000678288
0.00783951
-0.000423229
0.0078875
-0.000140744
0.00784828
0.000154315
0.00772282
0.000446438
0.00751705
0.000720644
0.00724094
0.000964206
0.00690729
0.00116773
0.00653042
0.00132559
0.00612495
0.00143584
0.00570476
0.00149968
0.0052823
0.00152072
0.00486818
0.00150415
0.00447101
0.00145602
0.00409741
0.00138261
0.00375217
0.00128995
0.00343851
0.0011836
0.00315827
0.00106841
0.00291211
0.000948513
0.00269996
0.000827823
0.00252035
0.000709124
0.00237224
0.00059475
0.00225341
0.000486328
0.00216158
0.000385299
0.00209419
0.000292601
0.00204851
0.000208677
0.00202274
0.000133383
0.0020134
6.7945e-05
0.00201834
1.10003e-05
0.00203542
-3.77346e-05
0.00206251
-7.86623e-05
0.00209768
-0.00011238
0.00213922
-0.000139534
0.0021856
-0.000160791
0.00223548
-0.000176809
0.00228771
-0.000188228
0.00234129
-0.000195653
0.0023954
-0.000199655
0.00244931
-0.000200758
0.00250247
-0.000199443
0.0025544
-0.000196139
0.00260474
-0.000191228
0.0026532
-0.000185049
0.00269958
-0.000177899
0.00274371
-0.000170027
0.00278551
-0.000161648
0.00282493
-0.000152951
0.00286195
-0.000144088
0.00289659
-0.000135182
0.00292887
-0.000126329
0.00295886
-0.000117612
0.00298662
-0.000109091
0.00301222
-0.000100809
0.00303575
-9.27922e-05
0.00305728
-8.50751e-05
0.0030769
-7.76539e-05
0.00309471
-7.05361e-05
0.00311077
-6.3704e-05
0.00312518
-5.71664e-05
0.00313799
-5.08954e-05
0.00314928
-4.4876e-05
0.00315912
-3.90867e-05
0.00316755
-3.35054e-05
0.00317462
-2.81087e-05
0.00318038
-2.28702e-05
0.00318487
-1.77645e-05
0.00318811
-1.27656e-05
0.00319013
-7.85319e-06
-2.89582e-06
0.00337579
2.34281e-06
0.00346793
9.92822e-05
0.00356013
0.000144538
0.00363342
0.000102002
0.00369158
6.68293e-07
0.00374783
-0.000130777
0.00381464
-0.000275074
0.00390214
-0.000426425
0.00401769
-0.000583435
0.00416668
-0.000745477
0.00435306
-0.000910881
0.00457943
-0.00107624
0.00484691
-0.00123623
0.00515462
-0.0013834
0.00549922
-0.00150847
0.00587431
-0.00160071
0.00627002
-0.00164855
0.00667284
-0.00164077
0.0070659
-0.00156789
0.00742982
-0.00142374
0.00774409
-0.00120713
0.00798877
-0.000922975
0.00814818
-0.000582638
0.00820938
-0.000201953
0.00816792
0.000195773
0.00802541
0.000588936
0.00779
0.000956055
0.00747486
0.00127934
0.00709649
0.0015461
0.00667279
0.00174929
0.00622146
0.00188717
0.00575876
0.00196238
0.00529875
0.00198073
0.00485291
0.00194999
0.00443009
0.00187883
0.00403676
0.00177594
0.00367727
0.00164944
0.00335422
0.00150665
0.0030688
0.00135382
0.00282102
0.0011963
0.00261038
0.00103846
0.00243458
0.000884924
0.00229204
0.000737283
0.00218021
0.000598159
0.00209648
0.000469027
0.00203772
0.000351358
0.00200118
0.000245215
0.00198362
0.000150932
0.00198322
6.83504e-05
0.00199648
-2.25563e-06
0.00202136
-6.26147e-05
0.00205566
-0.000112955
0.00209741
-0.000154123
0.00214486
-0.000186988
0.0021965
-0.000212433
0.00225101
-0.000231322
0.00230727
-0.000244482
0.00236432
-0.000252697
0.00242136
-0.000256691
0.00247774
-0.000257136
0.00253292
-0.00025463
0.0025865
-0.000249714
0.00263814
-0.000242872
0.00268761
-0.000234519
0.00273474
-0.00022502
0.00277941
-0.000214693
0.00282156
-0.000203803
0.00286118
-0.000192569
0.00289827
-0.000181177
0.00293288
-0.000169779
0.00296506
-0.000158498
0.00299487
-0.000147423
0.00302241
-0.000136624
0.00304776
-0.000126152
0.00307101
-0.000116044
0.00309226
-0.000106328
0.0031116
-9.69998e-05
0.00312913
-8.80623e-05
0.00314492
-7.95036e-05
0.00315907
-7.13163e-05
0.00317164
-6.34737e-05
0.00318271
-5.59515e-05
0.00319235
-4.87224e-05
0.0032006
-4.17584e-05
0.00320753
-3.50351e-05
0.00321317
-2.85086e-05
0.00321756
-2.21502e-05
0.00322072
-1.59278e-05
0.00322268
-9.8133e-06
-3.62675e-06
0.00334578
-1.00982e-05
0.003393
5.20703e-05
0.00345136
8.61723e-05
0.00350515
4.82029e-05
0.00355381
-4.79887e-05
0.0036047
-0.000181665
0.00366677
-0.000337147
0.00374917
-0.000508825
0.00385981
-0.00069408
0.00400557
-0.000891237
0.00419204
-0.00109735
0.00442395
-0.00130816
0.00470437
-0.00151666
0.00503428
-0.0017133
0.00541182
-0.00188601
0.00583133
-0.00202021
0.00628258
-0.0020998
0.00675033
-0.00210851
0.00721432
-0.00203188
0.00765026
-0.00185968
0.0080316
-0.00158848
0.00833245
-0.00122382
0.0085298
-0.000779994
0.00860899
-0.000281145
0.00856293
0.000241831
0.00839473
0.000757131
0.00811609
0.0012347
0.0077452
0.00165022
0.00730407
0.00198722
0.00681581
0.00223755
0.00630242
0.00240056
0.00578331
0.00248148
0.00527447
0.00248956
0.00478827
0.0024362
0.00433363
0.00233347
0.00391652
0.00219304
0.0035405
0.00202547
0.00320724
0.00183991
0.00291707
0.00164399
0.00266895
0.00144442
0.002461
0.00124642
0.0022917
0.00105422
0.00215743
0.000871547
0.0020553
0.000700289
0.00198302
0.00054131
0.00193578
0.0003986
0.00191113
0.000269868
0.00190559
0.000156471
0.00191607
5.78748e-05
0.0019402
-2.63769e-05
0.00197513
-9.75396e-05
0.00201863
-0.000156454
0.0020687
-0.000204198
0.0021236
-0.000241892
0.00218182
-0.000270659
0.00224209
-0.000291583
0.00230332
-0.000305703
0.0023646
-0.000313981
0.00242521
-0.000317305
0.00248456
-0.000316481
0.00254217
-0.000312244
0.00259769
-0.000305238
0.00265086
-0.000296037
0.00270149
-0.000285141
0.00274946
-0.000272984
0.0027947
-0.000259935
0.00283721
-0.000246303
0.00287699
-0.000232345
0.0029141
-0.000218279
0.0029486
-0.000204275
0.00298057
-0.000190467
0.00301012
-0.000176961
0.00303734
-0.000163835
0.00306233
-0.000151143
0.0030852
-0.000138919
0.00310606
-0.000127194
0.00312502
-0.000115957
0.00314216
-0.000105207
0.00315759
-9.49361e-05
0.0031714
-8.51194e-05
0.00318365
-7.57286e-05
0.00319443
-6.67333e-05
0.0032038
-5.80977e-05
0.00321183
-4.97892e-05
0.00321855
-4.17652e-05
0.00322402
-3.39824e-05
0.00322828
-2.64035e-05
0.00323134
-1.89916e-05
0.00323323
-1.17066e-05
-4.32886e-06
0.00332192
1.31689e-06
0.00333272
4.12844e-05
0.00335678
6.2105e-05
0.00338279
2.21925e-05
0.00341231
-7.7508e-05
0.00344705
-0.000216398
0.00349496
-0.000385056
0.00356429
-0.00057815
0.00366332
-0.000793114
0.00380002
-0.00102794
0.00398215
-0.00127948
0.00421657
-0.00154258
0.00450901
-0.0018091
0.00486317
-0.00206746
0.00527943
-0.00230228
0.00575366
-0.00249445
0.00627576
-0.00262191
0.00682861
-0.00266137
0.00738769
-0.00259096
0.00792188
-0.00239387
0.00839583
-0.00206243
0.00877416
-0.00160216
0.00902557
-0.00103141
0.00912849
-0.000384069
0.00907448
0.000295841
0.00886877
0.000962838
0.00852873
0.00157474
0.00808023
0.00209872
0.00755344
0.00251401
0.00697881
0.00281217
0.00638416
0.00299521
0.00579281
0.00307283
0.00522291
0.00305947
0.00468749
0.00297162
0.00419513
0.00282584
0.00375076
0.00263742
0.00335659
0.00241964
0.00301286
0.00218365
0.00271883
0.00193802
0.00247191
0.00169133
0.00227014
0.00144819
0.00210907
0.00121528
0.00198655
0.000994064
0.00189806
0.000788779
0.00183905
0.000600325
0.00180714
0.000430519
0.00179793
0.000279084
0.00180722
0.000147175
0.00183193
3.31733e-05
0.00186931
-6.37576e-05
0.00191653
-0.000144768
0.00197124
-0.000211164
0.0020314
-0.000264349
0.00209526
-0.000305748
0.00216135
-0.000336749
0.00222844
-0.00035868
0.00229553
-0.000372792
0.00236179
-0.000380237
0.00242657
-0.000382077
0.00248934
-0.000379258
0.00254973
-0.000372634
0.00260746
-0.000362963
0.00266233
-0.000350906
0.00271423
-0.000337038
0.00276309
-0.000321854
0.00280893
-0.000305769
0.00285176
-0.000289134
0.00289166
-0.000272241
0.00292871
-0.000255326
0.00296301
-0.000238575
0.00299469
-0.000222137
0.00302386
-0.000206124
0.00305064
-0.000190619
0.00307516
-0.000175667
0.00309755
-0.000161316
0.00311791
-0.000147567
0.00313638
-0.000134427
0.00315306
-0.000121883
0.00316803
-0.000109918
0.00318141
-9.84957e-05
0.00319327
-8.75865e-05
0.00320369
-7.71519e-05
0.00321273
-6.71496e-05
0.00322047
-5.75285e-05
0.00322696
-4.82452e-05
0.00323223
-3.92534e-05
0.00323632
-3.05013e-05
0.00323926
-2.19393e-05
0.00324107
-1.35227e-05
-4.99805e-06
0.00329938
3.52712e-05
0.00327843
6.22406e-05
0.00326765
7.28877e-05
0.0032637
2.61444e-05
0.00326578
-7.95833e-05
0.00327625
-0.000226868
0.00330149
-0.000410297
0.00334937
-0.000626032
0.00342867
-0.000872414
0.00354879
-0.00114807
0.00371957
-0.00145027
0.00395084
-0.00177384
0.00425178
-0.00211004
0.00462984
-0.00244552
0.0050891
-0.00276154
0.00562827
-0.00303361
0.00623844
-0.00323208
0.00690093
-0.00332385
0.00758605
-0.00327609
0.00825355
-0.00306137
0.00885546
-0.00266434
0.00934138
-0.00208809
0.00966749
-0.00135751
0.00980249
-0.000519066
0.00973509
0.000363238
0.00947462
0.0012233
0.00904758
0.00200178
0.00849172
0.00265456
0.00784922
0.0031565
0.00716082
0.00350056
0.00646188
0.00369415
0.00578036
0.00375436
0.00513644
0.00370339
0.00454326
0.00356479
0.0040082
0.00336091
0.00353431
0.0031113
0.00312175
0.00283221
0.00276878
0.00253661
0.0024728
0.002234
0.00223004
0.00193408
0.00203568
0.00164255
0.00188756
0.0013634
0.00178079
0.00110083
0.00170921
0.000860349
0.00166905
0.000640486
0.00165592
0.000443647
0.00166485
0.000270157
0.00169255
0.00011948
0.00173456
-8.84106e-06
0.00178797
-0.000117179
0.00184988
-0.000206676
0.00191785
-0.000279137
0.00198984
-0.000336336
0.00206413
-0.000380037
0.00213933
-0.000411941
0.00221427
-0.000433621
0.00228805
-0.000446569
0.00235994
-0.000452125
0.00242938
-0.000451522
0.00249598
-0.00044585
0.00255943
-0.000436084
0.00261955
-0.000423085
0.00267624
-0.000407598
0.00272946
-0.00039026
0.00277924
-0.000371624
0.00282562
-0.000352153
0.00286872
-0.000332229
0.00290864
-0.000312166
0.00294553
-0.000292214
0.00297952
-0.000272571
0.00301077
-0.000253392
0.00303944
-0.00023479
0.00306566
-0.000216842
0.00308959
-0.000199594
0.00311137
-0.000183093
0.00313114
-0.000167331
0.003149
-0.000152293
0.0031651
-0.000137984
0.00317953
-0.000124351
0.00319239
-0.000111365
0.00320378
-9.89792e-05
0.00321377
-8.71462e-05
0.00322244
-7.58145e-05
0.00322983
-6.4929e-05
0.00323603
-5.44362e-05
0.00324106
-4.42832e-05
0.00324496
-3.44072e-05
0.00324776
-2.4746e-05
0.00324948
-1.52494e-05
-5.6325e-06
0.00327747
9.11354e-05
0.00322363
0.000116081
0.00317903
0.000117491
0.00314285
6.23209e-05
0.00311196
-4.86983e-05
0.00309093
-0.000205833
0.00308543
-0.000404807
0.00310303
-0.000643638
0.00315317
-0.000922557
0.00324689
-0.00124179
0.00339651
-0.00159989
0.00361549
-0.00199281
0.00391759
-0.00241214
0.00431563
-0.00284356
0.00481937
-0.00326527
0.00543262
-0.00364687
0.00614971
-0.00394916
0.00695162
-0.00412577
0.00780301
-0.00412747
0.0086514
-0.00390976
0.00943043
-0.00344337
0.0100678
-0.00272546
0.0104984
-0.00178806
0.0106761
-0.000696785
0.0105858
0.000453536
0.0102442
0.00156485
0.00969296
0.00255302
0.00898825
0.00335927
0.00818996
0.00395479
0.007353
0.00433753
0.00652222
0.00452492
0.00573059
0.00454599
0.00499962
0.00443436
0.00434128
0.00422314
0.00376035
0.00394185
0.00325672
0.00361494
0.00282741
0.00326152
0.0024681
0.00289592
0.00217313
0.00252897
0.0019377
0.00216951
0.00175742
0.00182283
0.00162582
0.00149499
0.00153758
0.00118907
0.0014881
0.00090983
0.0014714
0.000657187
0.00148178
0.00043326
0.00151387
0.000238064
0.00156303
7.03206e-05
0.00162568
-7.1493e-05
0.001698
-0.000189494
0.00177705
-0.000285726
0.00186035
-0.000362442
0.00194589
-0.000421877
0.00203203
-0.000466181
0.00211747
-0.00049738
0.00220119
-0.000517333
0.00228238
-0.000527755
0.00236046
-0.000530199
0.00243499
-0.000526052
0.00250569
-0.000516551
0.00257239
-0.000502786
0.00263501
-0.000485708
0.00269356
-0.00046614
0.00274808
-0.000444786
0.0027987
-0.000422243
0.00284555
-0.000399003
0.00288879
-0.000375471
0.0029286
-0.000351977
0.00296518
-0.000328787
0.00299871
-0.000306102
0.00302939
-0.00028407
0.00305739
-0.000262796
0.00308291
-0.000242359
0.00310611
-0.000222801
0.00312715
-0.000204139
0.00314618
-0.000186363
0.00316334
-0.000169457
0.00317875
-0.000153396
0.00319253
-0.000138136
0.00320479
-0.000123627
0.00321563
-0.000109814
0.00322511
-9.66336e-05
0.00323333
-8.40308e-05
0.00324034
-7.19436e-05
0.00324619
-6.0301e-05
0.00325095
-4.90374e-05
0.00325463
-3.80889e-05
0.00325727
-2.7388e-05
0.0032589
-1.68745e-05
-6.22838e-06
0.00325452
0.000169951
0.00316806
0.000202528
0.00308994
0.000195616
0.0030166
0.000135654
0.00294881
1.90841e-05
0.0028904
-0.000147421
0.00284623
-0.000360647
0.00282398
-0.000621387
0.00283411
-0.000932688
0.00288901
-0.00129669
0.00300404
-0.00171492
0.003197
-0.00218576
0.00348758
-0.00270272
0.00389604
-0.00325203
0.00444074
-0.00380996
0.00513413
-0.00434026
0.00597753
-0.00479255
0.00695451
-0.00510275
0.00802467
-0.00519764
0.00911995
-0.00500504
0.0101473
-0.00447076
0.0110001
-0.00357827
0.0115789
-0.00236678
0.0118133
-0.000931256
0.0116833
0.000583552
0.0112195
0.0020287
0.0104887
0.0032838
0.0095763
0.00427165
0.00856828
0.00496281
0.0075387
0.00536711
0.00654375
0.00551988
0.00562079
0.00546896
0.00479086
0.00526429
0.00406248
0.00495151
0.00343561
0.00456873
0.00290507
0.00414548
0.00246326
0.00370334
0.00210251
0.00325667
0.00181381
0.00281768
0.00159054
0.00239277
0.00142852
0.00198484
0.00131865
0.00160485
0.00125737
0.00125035
0.00123493
0.000932271
0.00124663
0.000645489
0.00128508
0.000394809
0.00134503
0.000178115
0.00142032
-4.95463e-06
0.00150701
-0.000158193
0.00160123
-0.000283711
0.00169989
-0.000384389
0.00180056
-0.000463111
0.00190129
-0.000522615
0.00200061
-0.000565491
0.00209733
-0.000594105
0.00219061
-0.000610613
0.00227982
-0.000616957
0.00236451
-0.000614889
0.00244441
-0.000605961
0.0025194
-0.000591535
0.00258942
-0.00057281
0.00265454
-0.000550829
0.00271489
-0.000526479
0.00277061
-0.000500515
0.00282192
-0.000473564
0.00286907
-0.000446143
0.00291227
-0.000418676
0.00295179
-0.000391499
0.00298786
-0.000364869
0.00302074
-0.000338985
0.00305066
-0.000313988
0.00307783
-0.000289963
0.00310248
-0.000267003
0.00312478
-0.000245108
0.00314493
-0.000224286
0.00316309
-0.000204519
0.00317941
-0.000185779
0.00319402
-0.000168016
0.00320705
-0.000151175
0.00321861
-0.000135195
0.00322881
-0.000120007
0.00323772
-0.000105545
0.00324543
-9.17364e-05
0.00325199
-7.85075e-05
0.00325746
-6.57808e-05
0.0032619
-5.34778e-05
0.00326534
-4.15256e-05
0.0032678
-2.98507e-05
0.00326932
-1.83855e-05
-6.77978e-06
0.00323044
0.00027284
0.00311259
0.000320371
0.00299729
0.000310914
0.00288653
0.000246405
0.0027777
0.000127914
0.00267559
-4.5317e-05
0.00258472
-0.00026978
0.00251269
-0.000549357
0.00246996
-0.000889959
0.00247078
-0.00129751
0.00253345
-0.00177759
0.00268073
-0.00233305
0.00293963
-0.00296161
0.00334046
-0.00365285
0.00391405
-0.00438354
0.00468688
-0.0051131
0.00567372
-0.0057794
0.00686688
-0.00629592
0.00822425
-0.00655501
0.00965921
-0.00643999
0.0110403
-0.00585183
0.012206
-0.00474399
0.0129985
-0.00315925
0.0133084
-0.00124117
0.013108
0.000783908
0.0124557
0.00268103
0.0114616
0.00427796
0.0102572
0.005476
0.00896683
0.00625318
0.0076897
0.00664424
0.00649398
0.0067156
0.00541898
0.00654395
0.00448154
0.00620173
0.00368295
0.00575011
0.00301504
0.00523664
0.00246502
0.00469552
0.00201888
0.00414949
0.00166377
0.00361179
0.00138826
0.00309318
0.00118526
0.00259578
0.00104543
0.00212467
0.000964966
0.00168531
0.000933631
0.00128168
0.000946301
0.000919605
0.000994578
0.000597219
0.00106772
0.000321676
0.00115993
8.59079e-05
0.00126609
-0.000111096
0.00138072
-0.000272824
0.00149993
-0.000402921
0.00162068
-0.000505139
0.00174065
-0.000583083
0.00185811
-0.00064007
0.00197174
-0.000679129
0.00208063
-0.00070299
0.00218411
-0.00071409
0.00228176
-0.000714606
0.00237334
-0.000706467
0.00245877
-0.000691377
0.00253806
-0.000670827
0.00261136
-0.00064611
0.00267886
-0.000618336
0.00274082
-0.000588448
0.00279754
-0.000557237
0.00284933
-0.000525354
0.00289653
-0.000493332
0.00293945
-0.000461594
0.00297842
-0.000430467
0.00301375
-0.000400199
0.00304574
-0.000370976
0.00307467
-0.000342917
0.00310081
-0.000316108
0.00312438
-0.00029058
0.00314562
-0.000266347
0.00316471
-0.000243383
0.00318184
-0.000221661
0.00319718
-0.000201122
0.00321086
-0.0001817
0.00322304
-0.00016335
0.00323381
-0.000145965
0.00324328
-0.000129479
0.00325154
-0.000113809
0.00325866
-9.8866e-05
0.00326472
-8.45644e-05
0.00326977
-7.08274e-05
0.00327386
-5.75643e-05
0.00327702
-4.46888e-05
0.00327928
-3.21152e-05
0.00328067
-1.97712e-05
-7.28256e-06
0.00320701
0.000399161
0.00305572
0.000471657
0.00290369
0.000462938
0.00275278
0.000397312
0.00260128
0.000279411
0.00244961
0.000106357
0.0023044
-0.000124576
0.00217162
-0.000416579
0.00206188
-0.00078022
0.00199029
-0.00122592
0.00197785
-0.00176514
0.00205248
-0.00240768
0.00224947
-0.0031586
0.0026121
-0.00401548
0.00318864
-0.00496009
0.00402709
-0.00595155
0.0051663
-0.00691862
0.00661923
-0.00774885
0.00835165
-0.00828743
0.0102582
-0.00834656
0.0121528
-0.00774636
0.0137853
-0.0063765
0.0148941
-0.00426804
0.0153022
-0.00164929
0.0149748
0.00111133
0.014025
0.00363081
0.0126384
0.0056646
0.0110205
0.00709391
0.00935088
0.00792276
0.00775977
0.00823535
0.00632491
0.00815046
0.00508137
0.00778749
0.0040349
0.0072482
0.00317382
0.00661118
0.00247728
0.00593319
0.00192146
0.00525135
0.00148379
0.00458717
0.00114463
0.00395096
0.000889184
0.00334863
0.000711831
0.00277313
0.000603786
0.00223271
0.000558795
0.00173031
0.000569569
0.00127091
0.000625209
0.000863969
0.000714252
0.000508182
0.000829582
0.00020635
0.000961371
-4.58727e-05
0.0011032
-0.000252912
0.00124972
-0.000419339
0.00139701
-0.000550201
0.0015422
-0.000650329
0.00168324
-0.000724132
0.00181872
-0.000775549
0.00194764
-0.00080804
0.00206933
-0.000824692
0.00218344
-0.000828199
0.00228978
-0.000820941
0.00238834
-0.000805021
0.00247924
-0.000782275
0.00256272
-0.000754302
0.00263909
-0.000722474
0.00270871
-0.000687958
0.00277201
-0.000651742
0.00282941
-0.000614636
0.00288135
-0.000577296
0.00292826
-0.000540249
0.00297057
-0.000503908
0.00300868
-0.000468583
0.00304298
-0.0004345
0.0030738
-0.00040181
0.00310149
-0.000370615
0.00312634
-0.000340955
0.00314863
-0.000312866
0.00316859
-0.000286307
0.00318644
-0.000261245
0.00320239
-0.000237613
0.0032166
-0.000215334
0.00322924
-0.000194343
0.00324043
-0.000174544
0.0032503
-0.00015584
0.00325896
-0.000138137
0.00326649
-0.000121339
0.00327297
-0.000105351
0.00327847
-9.00651e-05
0.00328305
-7.54057e-05
0.00328674
-6.12608e-05
0.0032896
-4.75428e-05
0.00329164
-3.41552e-05
0.00329289
-2.10181e-05
-7.73332e-06
0.00318438
0.000548114
0.0030003
0.000655734
0.00281151
0.000651727
0.00261891
0.000589906
0.00242285
0.00047547
0.00221991
0.000309303
0.00201145
8.38866e-05
0.00180728
-0.000212414
0.001615
-0.00058794
0.00144991
-0.00106085
0.00133468
-0.00164991
0.00130116
-0.00237417
0.00139311
-0.00325055
0.00166951
-0.00429188
0.00220155
-0.00549213
0.00306821
-0.00681821
0.0043488
-0.00819921
0.0060988
-0.00949884
0.00831475
-0.0105034
0.0108819
-0.0109137
0.0135388
-0.0104032
0.0158894
-0.00872708
0.0174822
-0.00586086
0.0180126
-0.00217969
0.0174493
0.00167466
0.0160185
0.00506157
0.0140377
0.00764545
0.0118309
0.00930072
0.00965575
0.0100979
0.00767564
0.0102155
0.00596761
0.0098585
0.0045499
0.0092052
0.00340531
0.0083928
0.00250205
0.00751445
0.00179999
0.00663526
0.00126033
0.00579103
0.000850363
0.00499715
0.000539394
0.00426193
0.000311586
0.00357643
0.000167166
0.00291755
9.80065e-05
0.00230187
9.81257e-05
0.00173019
0.000157708
0.00121134
0.000266094
0.000755585
0.000410016
0.00036426
0.000574736
4.16322e-05
0.000752566
-0.00022369
0.000935426
-0.000435763
0.00111784
-0.000601754
0.00129612
-0.000728479
0.00146782
-0.000822038
0.00163141
-0.000887714
0.0017859
-0.00093004
0.00193074
-0.000952878
0.00206564
-0.000959593
0.00219055
-0.000953106
0.00230559
-0.000935972
0.002411
-0.000910428
0.00250715
-0.000878427
0.0025945
-0.000841652
0.00267356
-0.000801543
0.0027449
-0.000759307
0.0028091
-0.000715946
0.00286673
-0.000672276
0.00291839
-0.000628946
0.0029646
-0.000586462
0.0030059
-0.000545207
0.00304277
-0.000505455
0.00307567
-0.000467395
0.003105
-0.000431148
0.00313115
-0.000396765
0.00315446
-0.000364266
0.0031752
-0.000333621
0.00319366
-0.000304778
0.00321009
-0.000277664
0.00322467
-0.000252193
0.00323761
-0.000228271
0.00324905
-0.000205791
0.00325915
-0.000184642
0.00326802
-0.000164711
0.00327577
-0.000145888
0.00328249
-0.000128058
0.00328826
-0.000111123
0.00329315
-9.49599e-05
0.0032972
-7.94658e-05
0.00330047
-6.45326e-05
0.00330299
-5.00613e-05
0.0033048
-3.59517e-05
0.00330589
-2.21149e-05
-8.12769e-06
0.00316269
0.000718757
0.0029484
0.000870024
0.00272483
0.00087529
0.00249238
0.000822357
0.00224824
0.000719607
0.00199154
0.000566003
0.00171695
0.000358475
0.00143063
7.39055e-05
0.00114031
-0.000297627
0.000858776
-0.000779315
0.000608534
-0.00139966
0.000423219
-0.00218885
0.000351356
-0.00317868
0.000470891
-0.00441141
0.00087992
-0.00590116
0.0016976
-0.00763589
0.00306668
-0.00956829
0.00512341
-0.0115556
0.0079452
-0.0133252
0.0114451
-0.0144136
0.0152635
-0.0142217
0.0187632
-0.0122268
0.0211154
-0.00821307
0.0217833
-0.00284761
0.0207717
0.00268625
0.0185422
0.00729105
0.01565
0.0105377
0.0126055
0.0123452
0.00977022
0.0129332
0.00732494
0.0126607
0.0053264
0.011857
0.00375188
0.0107797
0.00254078
0.0096039
0.00163479
0.00842044
0.000967081
0.00730298
0.000480824
0.00627729
0.000121668
0.0053563
-0.000149262
0.00453286
-0.000340015
0.00376719
-0.000454513
0.00303205
-0.000481401
0.00232876
-0.000425841
0.00167463
-0.000302309
0.0010878
-0.000126102
0.00057938
8.04653e-05
0.0001577
0.00030661
-0.000184505
0.000538412
-0.000455493
0.000767898
-0.000665248
0.000989998
-0.000823845
0.00120175
-0.000940228
0.00140157
-0.00102185
0.00158868
-0.00107482
0.00176276
-0.00110412
0.0019238
-0.00111392
0.00207196
-0.00110776
0.00220756
-0.00108871
0.00233103
-0.00105944
0.00244292
-0.00102232
0.00254386
-0.000979371
0.00263456
-0.000932354
0.00271577
-0.000882745
0.00278824
-0.000831773
0.00285275
-0.00078045
0.00291006
-0.000729573
0.00296087
-0.000679757
0.00300585
-0.000631462
0.00304565
-0.000585016
0.00308083
-0.000540635
0.00311192
-0.000498488
0.0031394
-0.000458625
0.00316367
-0.000421039
0.00318512
-0.000385713
0.00320406
-0.000352565
0.00322079
-0.000321509
0.00323557
-0.00029244
0.00324861
-0.000265235
0.0032601
-0.000239766
0.00327021
-0.000215904
0.00327909
-0.000193518
0.00328685
-0.000172467
0.0032936
-0.000152645
0.00329944
-0.000133901
0.00330443
-0.00011612
0.00330865
-9.91775e-05
0.00331214
-8.29565e-05
0.00331495
-6.73416e-05
0.00331711
-5.22227e-05
0.00331865
-3.74916e-05
0.00331959
-2.30521e-05
-8.46162e-06
0.00314409