/*--------------------------------*- C++ -*----------------------------------*\
| =========                 |                                                 |
| \\      /  F ield         | OpenFOAM: The Open Source CFD Toolbox           |
|  \\    /   O peration     | Version:  v1806                                 |
|   \\  /    A nd           | Web:      www.OpenFOAM.com                      |
|    \\/     M anipulation  |                                                 |
\*---------------------------------------------------------------------------*/
FoamFile
{
    version     2.0;
    format      ascii;
    class       volVectorField;
    location    "0.09";
    object      U;
}
// * * * * * * * * * * * * * * * * * * * * * * * * * * * * * * * * * * * * * //

dimensions      [0 1 -1 0 0 0 0];


internalField   nonuniform List<vector> 
5400
(
(0.849898 0.0958168 0)
(0.781266 0.10604 0)
(0.649887 0.0687535 0)
(0.555061 0.0344862 0)
(0.514218 0.0111636 0)
(0.505703 -0.00228035 0)
(0.515259 -0.00975779 0)
(0.537151 -0.0148 0)
(0.56884 -0.0189806 0)
(0.609163 -0.0228679 0)
(0.657577 -0.0266596 0)
(0.713763 -0.0303174 0)
(0.777285 -0.0337103 0)
(0.8474 -0.036648 0)
(0.922969 -0.03891 -1.80503e-34)
(1.00241 -0.0402632 1.80503e-34)
(1.08367 -0.040481 0)
(1.16428 -0.0393671 0)
(1.24142 -0.0367815 0)
(1.31206 -0.0326658 0)
(1.37314 -0.0270636 0)
(1.42177 -0.0201353 0)
(1.45545 -0.0121389 0)
(1.47229 -0.0034325 0)
(1.47118 0.00561075 0)
(1.4519 0.0145245 0)
(1.41504 0.0229045 0)
(1.36197 0.0304036 0)
(1.29472 0.0367583 0)
(1.21576 0.0418007 0)
(1.12783 0.0454594 0)
(1.03374 0.0477487 0)
(0.936203 0.0487513 0)
(0.837726 0.0485969 0)
(0.740521 0.0474445 0)
(0.646459 0.0454667 0)
(0.557059 0.0428349 0)
(0.473498 0.0397104 0)
(0.396623 0.0362393 0)
(0.327 0.0325577 0)
(0.264937 0.0287994 0)
(0.210526 0.0250494 0)
(0.163692 0.0213947 0)
(0.12418 0.0178693 0)
(0.0916594 0.0145459 0)
(0.0656895 0.0114141 0)
(0.045734 0.00855172 0)
(0.0312619 0.00598038 0)
(0.0217369 0.0037032 0)
(0.0166459 0.00170577 0)
(0.0153494 -0.000120542 0)
(0.0172703 -0.00164967 0)
(0.0219886 -0.00292295 0)
(0.0290243 -0.00396779 0)
(0.0379422 -0.00480635 0)
(0.0483499 -0.00545982 0)
(0.0598965 -0.00594873 0)
(0.0722723 -0.00629302 0)
(0.0852051 -0.00651155 0)
(0.098461 -0.00662265 0)
(0.111841 -0.00664254 0)
(0.125177 -0.00658566 0)
(0.138332 -0.00646564 0)
(0.151191 -0.00629467 0)
(0.163663 -0.00608389 0)
(0.175676 -0.00584257 0)
(0.187177 -0.00557857 0)
(0.19813 -0.00529903 0)
(0.208507 -0.0050094 0)
(0.218295 -0.00471425 0)
(0.227488 -0.00441763 0)
(0.236086 -0.00412294 0)
(0.244094 -0.0038328 0)
(0.251525 -0.00354876 0)
(0.258392 -0.00327219 0)
(0.264711 -0.00300455 0)
(0.270501 -0.00274644 0)
(0.275779 -0.00249766 0)
(0.280566 -0.00225781 0)
(0.28488 -0.00202739 0)
(0.28874 -0.0018059 0)
(0.292163 -0.0015925 0)
(0.295164 -0.00138627 0)
(0.297758 -0.00118684 0)
(0.299958 -0.000994026 0)
(0.301776 -0.000806675 0)
(0.303221 -0.000622781 0)
(0.304301 -0.00044085 0)
(0.305027 -0.000257492 0)
(0.305362 -8.73964e-05 0)
(1.00421 0.137679 0)
(1.05748 0.185785 0)
(1.0568 0.145986 0)
(1.02627 0.0882791 0)
(1.00263 0.0375426 0)
(0.995824 0.0016843 0)
(1.00292 -0.0221867 0)
(1.02179 -0.0396583 0)
(1.05187 -0.0542235 0)
(1.09243 -0.0675276 0)
(1.14284 -0.0802095 0)
(1.20263 -0.092296 0)
(1.27122 -0.10346 0)
(1.34777 -0.113169 0)
(1.43096 -0.120764 0)
(1.51902 -0.125522 0)
(1.60963 -0.126727 0)
(1.69999 -0.123743 0)
(1.78685 -0.116102 0)
(1.86669 -0.103584 0)
(1.9359 -0.0862929 0)
(1.99107 -0.0646803 0)
(2.02921 -0.0395491 0)
(2.04804 -0.0120235 0)
(2.04618 0.0166092 0)
(2.02329 0.0449483 0)
(1.98007 0.0716667 0)
(1.91815 0.0956209 0)
(1.83996 0.115937 0)
(1.74846 0.132056 0)
(1.64691 0.143729 0)
(1.53868 0.150991 0)
(1.42697 0.154105 0)
(1.31473 0.153492 0)
(1.20454 0.149672 0)
(1.09854 0.143207 0)
(0.998447 0.134662 0)
(0.905538 0.124569 0)
(0.820712 0.113413 0)
(0.744549 0.101627 0)
(0.677284 0.0895832 0)
(0.618911 0.0775909 0)
(0.569222 0.0659206 0)
(0.527852 0.0547359 0)
(0.494326 0.0442142 0)
(0.4681 0.0344398 0)
(0.448568 0.0254743 0)
(0.43503 0.0174296 0)
(0.426823 0.0102989 0)
(0.42324 0.00405056 0)
(0.423709 -0.00141436 0)
(0.427659 -0.00604478 0)
(0.434464 -0.00990464 0)
(0.443618 -0.0130606 0)
(0.454653 -0.0155789 0)
(0.467148 -0.0175261 0)
(0.480728 -0.0189664 0)
(0.495067 -0.0199632 0)
(0.509878 -0.0205755 0)
(0.524919 -0.0208588 0)
(0.539985 -0.0208646 0)
(0.554908 -0.0206391 0)
(0.569546 -0.0202245 0)
(0.583785 -0.0196581 0)
(0.597539 -0.0189724 0)
(0.610739 -0.0181964 0)
(0.623336 -0.0173544 0)
(0.635296 -0.0164675 0)
(0.646599 -0.0155528 0)
(0.657235 -0.0146249 0)
(0.667202 -0.0136958 0)
(0.676506 -0.0127748 0)
(0.685158 -0.0118693 0)
(0.693173 -0.0109849 0)
(0.700569 -0.0101255 0)
(0.707366 -0.009294 0)
(0.713586 -0.00849258 0)
(0.719252 -0.00772091 0)
(0.724386 -0.00697898 0)
(0.729009 -0.00626613 0)
(0.733144 -0.0055813 0)
(0.736808 -0.00492247 0)
(0.740021 -0.00428745 0)
(0.742798 -0.00367417 0)
(0.745154 -0.0030804 0)
(0.747103 -0.00250321 0)
(0.748657 -0.00193845 0)
(0.749826 -0.00138293 0)
(0.750606 -0.000830428 0)
(0.75105 -0.00029472 0)
(1.00899 0.0606592 0)
(1.07212 0.125604 0)
(1.12052 0.122584 0)
(1.13529 0.084811 0)
(1.13775 0.0389407 0)
(1.14328 -0.00167281 0)
(1.1548 -0.0348667 0)
(1.17423 -0.0628851 0)
(1.20343 -0.0880547 0)
(1.24291 -0.111775 0)
(1.29259 -0.134587 0)
(1.35234 -0.156398 0)
(1.4218 -0.176635 0)
(1.50027 -0.194386 0)
(1.58655 -0.208511 0)
(1.67889 -0.217734 0)
(1.77494 -0.22076 0)
(1.8717 -0.216417 0)
(1.96565 -0.203811 0)
(2.05286 -0.182482 0)
(2.12925 -0.152542 0)
(2.19088 -0.114783 0)
(2.23425 -0.0705791 0)
(2.25663 -0.0219384 0)
(2.25642 0.0287267 0)
(2.23319 0.0789138 0)
(2.18773 0.1262 0)
(2.12193 0.168502 0)
(2.03856 0.204237 0)
(1.94104 0.232406 0)
(1.83303 0.252587 0)
(1.71828 0.264876 0)
(1.60031 0.269774 0)
(1.4823 0.268076 0)
(1.36699 0.260742 0)
(1.25659 0.2488 0)
(1.15285 0.233273 0)
(1.05704 0.215122 0)
(0.970016 0.195213 0)
(0.892281 0.174313 0)
(0.824007 0.153037 0)
(0.765146 0.131967 0)
(0.715397 0.11148 0)
(0.674315 0.091965 0)
(0.641378 0.0736746 0)
(0.615921 0.0568137 0)
(0.597315 0.0414491 0)
(0.584857 0.0276153 0)
(0.577768 0.0154097 0)
(0.57535 0.00475638 0)
(0.576964 -0.00437287 0)
(0.581996 -0.012111 0)
(0.58985 -0.0185417 0)
(0.599992 -0.0237709 0)
(0.611941 -0.0279124 0)
(0.625273 -0.0310828 0)
(0.63961 -0.0333948 0)
(0.654626 -0.0349577 0)
(0.670038 -0.0358745 0)
(0.685608 -0.0362402 0)
(0.701135 -0.0361435 0)
(0.716454 -0.0356636 0)
(0.73143 -0.0348721 0)
(0.745958 -0.0338326 0)
(0.759952 -0.0325988 0)
(0.773351 -0.0312194 0)
(0.786112 -0.0297359 0)
(0.798205 -0.0281827 0)
(0.809614 -0.0265889 0)
(0.820332 -0.0249789 0)
(0.830362 -0.0233721 0)
(0.839712 -0.0217837 0)
(0.848397 -0.0202257 0)
(0.856435 -0.0187072 0)
(0.863845 -0.0172345 0)
(0.870649 -0.0158116 0)
(0.876872 -0.0144413 0)
(0.882536 -0.0131242 0)
(0.887666 -0.0118598 0)
(0.892284 -0.0106462 0)
(0.896412 -0.00948085 0)
(0.90007 -0.00836101 0)
(0.903277 -0.00728331 0)
(0.90605 -0.00624352 0)
(0.908403 -0.00523659 0)
(0.910352 -0.00425792 0)
(0.911908 -0.00330284 0)
(0.913082 -0.0023668 0)
(0.913859 -0.00144483 0)
(0.914332 -0.000526511 0)
(1.00245 0.0240549 0)
(1.04442 0.0754849 0)
(1.09366 0.0868399 0)
(1.12055 0.0643729 0)
(1.13531 0.0266773 0)
(1.14965 -0.0136884 0)
(1.16621 -0.0519968 0)
(1.18786 -0.0879489 0)
(1.21774 -0.122456 0)
(1.25734 -0.156232 0)
(1.30727 -0.189442 0)
(1.36791 -0.221667 0)
(1.43932 -0.251976 0)
(1.5211 -0.278994 0)
(1.61228 -0.301003 2.44411e-32)
(1.7112 -0.316064 -2.44411e-32)
(1.81547 -0.322169 0)
(1.92186 -0.317453 0)
(2.02643 -0.300436 0)
(2.12462 -0.270282 0)
(2.21157 -0.227024 0)
(2.28253 -0.171744 0)
(2.33324 -0.106613 0)
(2.3603 -0.0345605 0)
(2.36173 0.0406647 0)
(2.33706 0.115143 0)
(2.28732 0.185141 0)
(2.21488 0.247473 0)
(2.1232 0.299762 0)
(2.01635 0.340557 0)
(1.89871 0.369317 0)
(1.77457 0.386287 0)
(1.64792 0.392323 0)
(1.52221 0.388696 0)
(1.40035 0.376905 0)
(1.28461 0.358524 0)
(1.17672 0.335085 0)
(1.07786 0.308009 0)
(0.988781 0.27856 0)
(0.909857 0.247836 0)
(0.841167 0.216748 0)
(0.782476 0.186117 0)
(0.73339 0.156477 0)
(0.69342 0.128345 0)
(0.661893 0.102071 0)
(0.638075 0.077926 0)
(0.621174 0.0560624 0)
(0.610508 0.0364954 0)
(0.605286 0.0191919 0)
(0.604665 0.00419033 0)
(0.607999 -0.00863931 0)
(0.61465 -0.0194385 0)
(0.62401 -0.0283594 0)
(0.635534 -0.0355668 0)
(0.648734 -0.0412307 0)
(0.663183 -0.0455214 0)
(0.678507 -0.0486043 0)
(0.694385 -0.0506361 0)
(0.710542 -0.0517657 0)
(0.726748 -0.0521297 0)
(0.74281 -0.0518535 0)
(0.758574 -0.0510495 0)
(0.773914 -0.0498179 0)
(0.788734 -0.0482484 0)
(0.802958 -0.0464179 0)
(0.816532 -0.0443927 0)
(0.829421 -0.0422303 0)
(0.841603 -0.0399795 0)
(0.853068 -0.0376809 0)
(0.863814 -0.0353669 0)
(0.87385 -0.0330639 0)
(0.883189 -0.0307934 0)
(0.89185 -0.0285716 0)
(0.899852 -0.0264101 0)
(0.90722 -0.0243175 0)
(0.913977 -0.0222994 0)
(0.920148 -0.0203585 0)
(0.925762 -0.018495 0)
(0.930841 -0.0167076 0)
(0.93541 -0.0149939 0)
(0.939492 -0.0133504 0)
(0.943107 -0.0117722 0)
(0.946275 -0.0102541 0)
(0.949013 -0.00879025 0)
(0.951338 -0.007374 0)
(0.953263 -0.00599863 0)
(0.9548 -0.00465793 0)
(0.955961 -0.00334518 0)
(0.956724 -0.00205492 0)
(0.957195 -0.000756167 0)
(0.998592 0.00531632 0)
(1.02208 0.0412522 0)
(1.05874 0.0554911 0)
(1.08233 0.0410649 0)
(1.09891 0.00915829 0)
(1.11617 -0.0301736 0)
(1.13489 -0.0718503 0)
(1.15755 -0.11426 0)
(1.18763 -0.157283 0)
(1.22719 -0.200974 0)
(1.27745 -0.245029 0)
(1.33932 -0.288639 0)
(1.41339 -0.330419 0)
(1.49968 -0.368444 0)
(1.59757 -0.400309 0)
(1.70559 -0.423249 0)
(1.82132 -0.434337 0)
(1.94126 -0.430768 0)
(2.06085 -0.410222 0)
(2.17466 -0.371254 0)
(2.27669 -0.313683 0)
(2.36085 -0.238835 0)
(2.42176 -0.149687 0)
(2.4551 -0.0506607 0)
(2.45821 0.0529498 0)
(2.43065 0.155407 0)
(2.37388 0.251285 0)
(2.29111 0.33604 0)
(2.1868 0.406384 0)
(2.06616 0.460426 0)
(1.93455 0.497612 0)
(1.79711 0.518507 0)
(1.6584 0.524508 0)
(1.52227 0.517543 0)
(1.39178 0.499797 0)
(1.26924 0.473499 0)
(1.15626 0.440767 0)
(1.05386 0.403524 0)
(0.962623 0.363452 0)
(0.8827 0.322005 0)
(0.81401 0.280373 0)
(0.756134 0.239467 0)
(0.708475 0.200183 0)
(0.670403 0.163059 0)
(0.641149 0.128499 0)
(0.619849 0.0969163 0)
(0.605617 0.0683998 0)
(0.597557 0.043065 0)
(0.594909 0.0207888 0)
(0.596875 0.00149908 0)
(0.602628 -0.0149021 0)
(0.61153 -0.0286206 0)
(0.622956 -0.0398765 0)
(0.636351 -0.0488989 0)
(0.651227 -0.0559207 0)
(0.667158 -0.0611703 0)
(0.68378 -0.064869 0)
(0.700781 -0.0672247 0)
(0.717896 -0.0684323 0)
(0.734911 -0.0686712 0)
(0.751645 -0.0681033 0)
(0.76796 -0.0668745 0)
(0.783742 -0.0651149 0)
(0.798908 -0.0629379 0)
(0.813396 -0.0604425 0)
(0.827165 -0.0577143 0)
(0.840186 -0.0548249 0)
(0.852449 -0.0518359 0)
(0.863954 -0.0487982 0)
(0.874707 -0.0457529 0)
(0.884722 -0.0427327 0)
(0.894018 -0.0397639 0)
(0.902619 -0.0368658 0)
(0.910551 -0.0340525 0)
(0.91784 -0.0313347 0)
(0.924513 -0.0287186 0)
(0.9306 -0.0262062 0)
(0.936129 -0.0237965 0)
(0.941125 -0.0214884 0)
(0.945615 -0.019278 0)
(0.949622 -0.0171604 0)
(0.953168 -0.0151286 0)
(0.956273 -0.0131754 0)
(0.958956 -0.0112938 0)
(0.961232 -0.00947477 0)
(0.963116 -0.00770943 0)
(0.964619 -0.00598935 0)
(0.965754 -0.00430574 0)
(0.966498 -0.00265132 0)
(0.966956 -0.000979221 0)
(0.996049 -0.00223208 0)
(1.00679 0.0209442 0)
(1.03047 0.0330908 0)
(1.04581 0.0215909 0)
(1.05845 -0.00764282 0)
(1.07387 -0.0468449 0)
(1.09125 -0.0916411 0)
(1.1125 -0.140062 0)
(1.14108 -0.191418 0)
(1.17939 -0.245299 0)
(1.22914 -0.301032 0)
(1.29182 -0.357413 0)
(1.36862 -0.412593 0)
(1.46015 -0.464038 0)
(1.56628 -0.508526 0)
(1.68589 -0.542265 0)
(1.81661 -0.561126 0)
(1.95463 -0.561007 0)
(2.09464 -0.538347 0)
(2.22995 -0.490727 0)
(2.35292 -0.417477 0)
(2.45566 -0.320174 0)
(2.53079 -0.202717 0)
(2.57259 -0.0713484 0)
(2.57776 0.0663237 0)
(2.54567 0.202114 0)
(2.47853 0.32836 0)
(2.38083 0.438797 0)
(2.25866 0.529086 0)
(2.11883 0.59696 0)
(1.96814 0.642056 0)
(1.81285 0.665538 0)
(1.6583 0.669638 0)
(1.50875 0.657206 0)
(1.36742 0.631325 0)
(1.23654 0.595024 0)
(1.11753 0.5511 0)
(1.01115 0.502019 0)
(0.91769 0.449884 0)
(0.837038 0.396503 0)
(0.768735 0.343303 0)
(0.712255 0.291466 0)
(0.66683 0.241872 0)
(0.631478 0.195304 0)
(0.605403 0.15226 0)
(0.587556 0.112939 0)
(0.576844 0.0776486 0)
(0.572371 0.0464663 0)
(0.573159 0.019314 0)
(0.578388 -0.0040718 0)
(0.587276 -0.0238431 0)
(0.599063 -0.0402658 0)
(0.613116 -0.0536311 0)
(0.628874 -0.0642389 0)
(0.645851 -0.0723906 0)
(0.66363 -0.0783791 0)
(0.681858 -0.0824849 0)
(0.700238 -0.0849707 0)
(0.718524 -0.086078 0)
(0.736518 -0.0860289 0)
(0.754061 -0.0850235 0)
(0.77103 -0.0832401 0)
(0.787332 -0.0808375 0)
(0.802899 -0.0779532 0)
(0.817687 -0.0747071 0)
(0.831667 -0.0712024 0)
(0.844828 -0.0675251 0)
(0.857169 -0.0637472 0)
(0.8687 -0.0599289 0)
(0.879439 -0.0561189 0)
(0.889407 -0.0523555 0)
(0.898633 -0.0486684 0)
(0.907146 -0.0450794 0)
(0.914975 -0.0416047 0)
(0.922152 -0.038256 0)
(0.92871 -0.035038 0)
(0.934682 -0.0319524 0)
(0.940096 -0.0289987 0)
(0.944981 -0.0261736 0)
(0.949365 -0.023472 0)
(0.953272 -0.0208864 0)
(0.956727 -0.0184081 0)
(0.959748 -0.0160283 0)
(0.962357 -0.013737 0)
(0.964569 -0.0115237 0)
(0.966398 -0.00937671 0)
(0.967856 -0.00728555 0)
(0.968956 -0.00523989 0)
(0.969675 -0.00322964 0)
(0.970117 -0.00119424 0)
(0.993686 -0.00195045 0)
(0.99468 0.0123226 0)
(1.00703 0.0208381 0)
(1.01272 0.00915467 0)
(1.01845 -0.0196368 0)
(1.02879 -0.0600318 0)
(1.04176 -0.108459 0)
(1.05899 -0.163083 0)
(1.08389 -0.223074 0)
(1.11909 -0.287822 0)
(1.1668 -0.356442 0)
(1.22917 -0.42744 0)
(1.30811 -0.498563 0)
(1.40503 -0.566637 0)
(1.52057 -0.627515 5.51223e-32)
(1.65417 -0.676153 -5.51223e-32)
(1.80372 -0.706845 0)
(1.96514 -0.713681 0)
(2.13222 -0.691255 0)
(2.29661 -0.635571 0)
(2.44833 -0.545019 0)
(2.57672 -0.421193 0)
(2.67172 -0.269399 0)
(2.72532 -0.0981092 0)
(2.73293 0.081709 0)
(2.69402 0.258372 0)
(2.61198 0.421147 0)
(2.49334 0.561538 0)
(2.34655 0.674008 0)
(2.18078 0.756083 0)
(2.00482 0.807956 0)
(1.8264 0.83184 0)
(1.65177 0.831244 0)
(1.48564 0.810315 0)
(1.33126 0.773308 0)
(1.19064 0.724239 0)
(1.06484 0.666677 0)
(0.95421 0.603666 0)
(0.858643 0.537743 0)
(0.777637 0.470983 0)
(0.710475 0.405063 0)
(0.656193 0.341206 0)
(0.613792 0.280536 0)
(0.582261 0.224004 0)
(0.560246 0.172069 0)
(0.546695 0.124954 0)
(0.540597 0.0829513 0)
(0.540673 0.0459861 0)
(0.545819 0.0139993 0)
(0.555166 -0.0132632 0)
(0.567883 -0.0361402 0)
(0.583193 -0.0549773 0)
(0.600436 -0.0701504 0)
(0.619047 -0.0820424 0)
(0.638546 -0.0910307 0)
(0.658527 -0.0974787 0)
(0.678655 -0.101729 0)
(0.698659 -0.104101 0)
(0.718313 -0.104886 0)
(0.737444 -0.104348 0)
(0.755918 -0.102726 0)
(0.773633 -0.10023 0)
(0.79052 -0.097045 0)
(0.806533 -0.0933335 0)
(0.821645 -0.0892348 0)
(0.835848 -0.0848665 0)
(0.849145 -0.0803275 0)
(0.861552 -0.0757007 0)
(0.873092 -0.0710539 0)
(0.883792 -0.0664408 0)
(0.893687 -0.0619039 0)
(0.902811 -0.0574759 0)
(0.911201 -0.0531811 0)
(0.918895 -0.0490357 0)
(0.925929 -0.0450493 0)
(0.93234 -0.0412265 0)
(0.938164 -0.0375682 0)
(0.943434 -0.0340738 0)
(0.94818 -0.0307369 0)
(0.952431 -0.0275501 0)
(0.956216 -0.0245044 0)
(0.959557 -0.0215895 0)
(0.962476 -0.0187933 0)
(0.964993 -0.0161027 0)
(0.967126 -0.0135058 0)
(0.968888 -0.0109889 0)
(0.970291 -0.00853862 0)
(0.971348 -0.0061419 0)
(0.972038 -0.00378623 0)
(0.972462 -0.00140001 0)
(0.991179 0.00485654 0)
(0.983555 0.0139933 0)
(0.985511 0.0186265 0)
(0.981204 0.00525019 0)
(0.97834 -0.024429 0)
(0.981021 -0.0670293 0)
(0.987026 -0.119667 0)
(0.997691 -0.180884 0)
(1.01643 -0.250018 0)
(1.04618 -0.326532 0)
(1.08968 -0.409522 0)
(1.14983 -0.497415 0)
(1.22953 -0.587661 0)
(1.33126 -0.676499 0)
(1.45678 -0.758792 0)
(1.60653 -0.827998 0)
(1.779 -0.876365 0)
(1.97008 -0.895469 0)
(2.17255 -0.877159 0)
(2.37594 -0.814892 0)
(2.56702 -0.705311 0)
(2.73097 -0.54969 0)
(2.85353 -0.354891 0)
(2.92332 -0.132914 0)
(2.93384 0.10052 0)
(2.88471 0.3286 0)
(2.78132 0.536237 0)
(2.63337 0.712006 0)
(2.45293 0.849086 0)
(2.25255 0.945168 0)
(2.04371 1.00164 0)
(1.83597 1.02248 0)
(1.63662 1.01311 0)
(1.45067 0.979488 0)
(1.28121 0.927393 0)
(1.12978 0.862021 0)
(0.996845 0.787794 0)
(0.882125 0.70834 0)
(0.784942 0.626606 0)
(0.704324 0.544781 0)
(0.638956 0.464697 0)
(0.587759 0.387866 0)
(0.549684 0.31547 0)
(0.52309 0.248235 0)
(0.506453 0.186842 0)
(0.498554 0.131793 0)
(0.498004 0.0830898 0)
(0.503558 0.0405702 0)
(0.514058 0.0040188 0)
(0.528404 -0.02685 0)
(0.545724 -0.0524884 0)
(0.56522 -0.0733646 0)
(0.586223 -0.0899607 0)
(0.608169 -0.102758 0)
(0.630594 -0.112219 0)
(0.653114 -0.118783 0)
(0.675421 -0.122859 0)
(0.697269 -0.124824 0)
(0.718467 -0.12502 0)
(0.73887 -0.123756 0)
(0.758373 -0.121304 0)
(0.776906 -0.11791 0)
(0.794424 -0.113782 0)
(0.810907 -0.109105 0)
(0.826353 -0.104034 0)
(0.840774 -0.0987024 0)
(0.854194 -0.0932197 0)
(0.866644 -0.0876769 0)
(0.878162 -0.0821471 0)
(0.888792 -0.076688 0)
(0.898576 -0.0713453 0)
(0.90756 -0.0661528 0)
(0.915791 -0.0611347 0)
(0.923312 -0.0563068 0)
(0.930167 -0.0516765 0)
(0.936397 -0.0472486 0)
(0.94204 -0.0430223 0)
(0.947133 -0.0389918 0)
(0.951711 -0.0351504 0)
(0.955804 -0.0314882 0)
(0.95944 -0.0279934 0)
(0.962645 -0.0246524 0)
(0.965443 -0.0214512 0)
(0.967852 -0.0183743 0)
(0.96989 -0.015407 0)
(0.971573 -0.0125345 0)
(0.972911 -0.00973957 0)
(0.973919 -0.00700537 0)
(0.974575 -0.0043177 0)
(0.974979 -0.00159564 0)
(0.988624 0.018304 0)
(0.972372 0.0254269 0)
(0.964063 0.0266942 0)
(0.949642 0.0113911 0)
(0.936986 -0.0202187 0)
(0.930039 -0.0656381 0)
(0.926744 -0.122823 0)
(0.928287 -0.190904 0)
(0.938131 -0.26964 0)
(0.959538 -0.358795 0)
(0.99587 -0.457754 0)
(1.05096 -0.565106 0)
(1.12893 -0.678247 0)
(1.23376 -0.792994 0)
(1.36887 -0.903237 0)
(1.53633 -1.00072 0)
(1.73589 -1.0751 0)
(1.9639 -1.1145 0)
(2.21226 -1.10666 0)
(2.46784 -1.04095 0)
(2.71286 -0.910827 0)
(2.92641 -0.716493 0)
(3.08771 -0.466647 0)
(3.17987 -0.178398 0)
(3.19351 0.125151 0)
(3.12878 0.419437 0)
(2.99445 0.683104 0)
(2.80531 0.900908 0)
(2.5789 1.06484 0)
(2.33259 1.17354 0)
(2.08144 1.2307 0)
(1.83721 1.24314 0)
(1.60816 1.21915 0)
(1.39932 1.16714 0)
(1.21322 1.09483 0)
(1.0505 1.00877 0)
(0.910663 0.914274 0)
(0.792568 0.815462 0)
(0.694682 0.715558 0)
(0.615386 0.616808 0)
(0.553275 0.521013 0)
(0.506728 0.43008 0)
(0.473965 0.344923 0)
(0.453479 0.266574 0)
(0.443684 0.195599 0)
(0.442848 0.132394 0)
(0.449301 0.0769131 0)
(0.461546 0.0290687 0)
(0.478357 -0.011652 0)
(0.498629 -0.045687 0)
(0.521347 -0.0736166 0)
(0.545707 -0.0960473 0)
(0.571036 -0.113586 0)
(0.596787 -0.126822 0)
(0.622523 -0.136313 0)
(0.647892 -0.142582 0)
(0.672623 -0.146107 0)
(0.696508 -0.147322 0)
(0.719395 -0.146621 0)
(0.741175 -0.144354 0)
(0.76178 -0.140832 0)
(0.781173 -0.136326 0)
(0.799344 -0.131072 0)
(0.816301 -0.125271 0)
(0.832068 -0.119096 0)
(0.846683 -0.112691 0)
(0.860193 -0.106174 0)
(0.872648 -0.0996407 0)
(0.884103 -0.0931694 0)
(0.894617 -0.0868201 0)
(0.904245 -0.0806383 0)
(0.913045 -0.0746565 0)
(0.921071 -0.0688985 0)
(0.928377 -0.0633778 0)
(0.935011 -0.058101 0)
(0.941019 -0.0530692 0)
(0.946445 -0.0482783 0)
(0.95133 -0.0437195 0)
(0.955708 -0.0393843 0)
(0.959613 -0.0352594 0)
(0.963076 -0.0313286 0)
(0.966123 -0.0275754 0)
(0.968779 -0.0239841 0)
(0.971062 -0.0205372 0)
(0.97299 -0.017216 0)
(0.974581 -0.0140026 0)
(0.975845 -0.0108781 0)
(0.976796 -0.00782296 0)
(0.977414 -0.00482065 0)
(0.977795 -0.00178031 0)
(0.985854 0.0385372 0)
(0.960859 0.0462804 0)
(0.94245 0.0453544 0)
(0.917288 0.0280422 0)
(0.893504 -0.00563136 0)
(0.87542 -0.0538836 0)
(0.860739 -0.115549 0)
(0.850528 -0.190439 0)
(0.848398 -0.27889 0)
(0.857971 -0.381301 0)
(0.883263 -0.497664 0)
(0.92921 -0.627102 0)
(1.00146 -0.76734 0)
(1.10604 -0.914124 0)
(1.24874 -1.06057 1.6574e-32)
(1.43424 -1.19662 -1.6574e-32)
(1.66466 -1.3088 0)
(1.93781 -1.38055 0)
(2.24525 -1.39357 0)
(2.5708 -1.33055 0)
(2.89042 -1.17928 0)
(3.17403 -0.937168 0)
(3.39045 -0.615046 0)
(3.51381 -0.237815 0)
(3.53025 0.159854 0)
(3.44118 0.541218 0)
(3.26134 0.875754 0)
(3.01374 1.14335 0)
(2.72432 1.3354 0)
(2.41726 1.45305 0)
(2.11224 1.50412 0)
(1.82342 1.50002 0)
(1.55966 1.45314 0)
(1.32544 1.37516 0)
(1.12197 1.27613 0)
(0.948426 1.16413 0)
(0.802799 1.04528 0)
(0.682739 0.92402 0)
(0.585703 0.803497 0)
(0.509275 0.685944 0)
(0.451796 0.573305 0)
(0.411314 0.466766 0)
(0.385888 0.367886 0)
(0.373529 0.277545 0)
(0.372079 0.196509 0)
(0.379714 0.125203 0)
(0.394555 0.063289 0)
(0.414893 0.0103678 0)
(0.439222 -0.0340306 0)
(0.466374 -0.070655 0)
(0.495311 -0.100267 0)
(0.525208 -0.123641 0)
(0.555413 -0.14153 0)
(0.585414 -0.154645 0)
(0.614811 -0.163645 0)
(0.643304 -0.169138 0)
(0.670667 -0.171672 0)
(0.696743 -0.171743 0)
(0.721426 -0.169793 0)
(0.744652 -0.166213 0)
(0.766397 -0.161347 0)
(0.786663 -0.155493 0)
(0.805477 -0.148909 0)
(0.822881 -0.141814 0)
(0.838932 -0.134392 0)
(0.853697 -0.126794 0)
(0.867245 -0.119145 0)
(0.879649 -0.111544 0)
(0.890984 -0.104071 0)
(0.901324 -0.0967856 0)
(0.910741 -0.0897309 0)
(0.919302 -0.0829386 0)
(0.927071 -0.0764266 0)
(0.934111 -0.0702065 0)
(0.940478 -0.064282 0)
(0.946222 -0.0586496 0)
(0.951392 -0.0533007 0)
(0.95603 -0.0482256 0)
(0.960174 -0.0434098 0)
(0.963862 -0.0388351 0)
(0.967126 -0.0344836 0)
(0.969992 -0.030336 0)
(0.972483 -0.0263731 0)
(0.974622 -0.0225746 0)
(0.976427 -0.0189183 0)
(0.977914 -0.0153823 0)
(0.979093 -0.0119462 0)
(0.979981 -0.00858894 0)
(0.980556 -0.00529124 0)
(0.980911 -0.00195249 0)
(0.982907 0.0658132 0)
(0.949133 0.0771758 0)
(0.920331 0.074832 0)
(0.883875 0.0557899 0)
(0.848298 0.0204522 0)
(0.817524 -0.0299707 0)
(0.789287 -0.0954779 0)
(0.764617 -0.176516 0)
(0.747103 -0.274218 0)
(0.740627 -0.389916 0)
(0.749914 -0.524597 0)
(0.78109 -0.678419 0)
(0.841642 -0.850037 0)
(0.940182 -1.03577 0)
(1.08591 -1.22849 1.78285e-32)
(1.28746 -1.41656 -1.78285e-32)
(1.55112 -1.58299 0)
(1.87805 -1.70513 0)
(2.26092 -1.75588 0)
(2.68061 -1.70717 0)
(3.10464 -1.5365 0)
(3.48904 -1.23511 0)
(3.78544 -0.815577 0)
(3.95293 -0.315128 0)
(3.97049 0.212321 0)
(3.84251 0.710467 0)
(3.59447 1.13532 0)
(3.26299 1.46096 0)
(2.88681 1.67983 0)
(2.49968 1.79858 0)
(2.12689 1.83231 0)
(1.78479 1.79948 0)
(1.48192 1.71822 0)
(1.22102 1.60436 0)
(1.00097 1.47065 0)
(0.818515 1.32665 0)
(0.669512 1.17903 0)
(0.549847 1.03224 0)
(0.455797 0.888823 0)
(0.384502 0.750458 0)
(0.333507 0.619011 0)
(0.300821 0.495683 0)
(0.284342 0.382074 0)
(0.28178 0.279262 0)
(0.291085 0.188134 0)
(0.309422 0.108576 0)
(0.334301 0.0405057 0)
(0.364094 -0.0168275 0)
(0.397229 -0.0642176 0)
(0.432306 -0.102667 0)
(0.468292 -0.133185 0)
(0.504388 -0.156747 0)
(0.539987 -0.174271 0)
(0.574636 -0.186599 0)
(0.607999 -0.1945 0)
(0.639841 -0.198664 0)
(0.669998 -0.199711 0)
(0.698371 -0.198194 0)
(0.724912 -0.194601 0)
(0.749612 -0.189363 0)
(0.772492 -0.182853 0)
(0.793604 -0.175394 0)
(0.813017 -0.167262 0)
(0.830814 -0.158688 0)
(0.847085 -0.149864 0)
(0.861928 -0.140948 0)
(0.87544 -0.132068 0)
(0.887719 -0.123322 0)
(0.898861 -0.114787 0)
(0.908956 -0.10652 0)
(0.918091 -0.0985625 0)
(0.926349 -0.090939 0)
(0.933803 -0.0836631 0)
(0.940521 -0.0767407 0)
(0.946568 -0.0701711 0)
(0.952 -0.0639457 0)
(0.956869 -0.0580521 0)
(0.961221 -0.0524751 0)
(0.965098 -0.0471935 0)
(0.968539 -0.0421867 0)
(0.971575 -0.0374342 0)
(0.974234 -0.0329133 0)
(0.97654 -0.0285993 0)
(0.978517 -0.0244687 0)
(0.980183 -0.0204978 0)
(0.981553 -0.0166619 0)
(0.982638 -0.0129367 0)
(0.983454 -0.00929833 0)
(0.983982 -0.00572594 0)
(0.984308 -0.0021107 0)
(0.98004 0.100199 0)
(0.937296 0.11803 0)
(0.897865 0.115179 0)
(0.849784 0.0954155 0)
(0.801785 0.0591123 0)
(0.757204 0.0074215 0)
(0.713385 -0.0603202 0)
(0.671465 -0.146027 0)
(0.634804 -0.25162 0)
(0.607408 -0.37964 0)
(0.594538 -0.532531 0)
(0.60348 -0.712101 0)
(0.643725 -0.918822 0)
(0.727064 -1.15068 0)
(0.867257 -1.40135 -4.81298e-33)
(1.0788 -1.65843 4.81298e-33)
(1.37481 -1.90164 0)
(1.76322 -2.10095 0)
(2.24107 -2.21684 0)
(2.78774 -2.20387 0)
(3.36001 -2.02097 0)
(3.89276 -1.64611 0)
(4.30843 -1.09169 0)
(4.53939 -0.414842 0)
(4.55307 0.296793 0)
(4.36118 0.954356 0)
(4.00893 1.49435 0)
(3.55563 1.88497 0)
(3.05958 2.12376 0)
(2.56755 2.22847 0)
(2.11104 2.22663 0)
(1.7073 2.1472 0)
(1.36262 2.01602 0)
(1.07604 1.85373 0)
(0.842542 1.67589 0)
(0.655214 1.49324 0)
(0.506934 1.31247 0)
(0.391229 1.1375 0)
(0.302799 0.969334 0)
(0.2385 0.808356 0)
(0.196225 0.6562 0)
(0.17372 0.514642 0)
(0.16893 0.385171 0)
(0.179154 0.26929 0)
(0.201044 0.16772 0)
(0.231811 0.0804323 0)
(0.268935 0.00681802 0)
(0.309999 -0.0540151 0)
(0.353246 -0.103396 0)
(0.397299 -0.142658 0)
(0.441145 -0.173097 0)
(0.484052 -0.195924 0)
(0.525505 -0.212232 0)
(0.56514 -0.223002 0)
(0.60271 -0.229106 0)
(0.638063 -0.231318 0)
(0.671113 -0.230323 0)
(0.701834 -0.226726 0)
(0.730241 -0.22106 0)
(0.756388 -0.213788 0)
(0.780355 -0.205311 0)
(0.802245 -0.195972 0)
(0.822176 -0.186059 0)
(0.840273 -0.175813 0)
(0.856667 -0.16543 0)
(0.87149 -0.15507 0)
(0.884869 -0.144858 0)
(0.896928 -0.134889 0)
(0.907784 -0.125236 0)
(0.917548 -0.115949 0)
(0.926322 -0.107061 0)
(0.9342 -0.0985897 0)
(0.941269 -0.090544 0)
(0.947603 -0.0829225 0)
(0.953273 -0.0757166 0)
(0.958341 -0.0689113 0)
(0.962863 -0.0624882 0)
(0.966888 -0.0564257 0)
(0.970462 -0.0506994 0)
(0.973621 -0.0452845 0)
(0.976399 -0.0401547 0)
(0.978827 -0.0352831 0)
(0.980928 -0.0306423 0)
(0.982724 -0.0262044 0)
(0.984234 -0.0219423 0)
(0.985475 -0.0178299 0)
(0.986456 -0.0138396 0)
(0.987194 -0.00994429 0)
(0.987669 -0.00612108 0)
(0.987963 -0.00225383 0)
(0.977272 0.141661 0)
(0.925788 0.168483 0)
(0.875838 0.16643 0)
(0.815928 0.147144 0)
(0.754974 0.111608 0)
(0.696052 0.0600869 0)
(0.635099 -0.00804808 0)
(0.572991 -0.0958011 0)
(0.513261 -0.206654 0)
(0.459472 -0.344539 0)
(0.417141 -0.513863 0)
(0.394379 -0.718799 0)
(0.402496 -0.962722 0)
(0.456887 -1.24711 0)
(0.577117 -1.56819 0)
(0.785749 -1.91464 0)
(1.10664 -2.26459 0)
(1.56018 -2.58024 0)
(2.15451 -2.80561 0)
(2.8724 -2.86761 0)
(3.65848 -2.69113 0)
(4.4156 -2.22636 0)
(5.01501 -1.4786 0)
(5.3393 -0.540312 0)
(5.33644 0.440152 0)
(5.03634 1.31864 0)
(4.5216 2.00353 0)
(3.88941 2.46036 0)
(3.22761 2.70079 0)
(2.59989 2.76428 0)
(2.04293 2.6981 0)
(1.57145 2.54668 0)
(1.18577 2.34527 0)
(0.878338 2.11929 0)
(0.638087 1.8867 0)
(0.45287 1.65872 0)
(0.311715 1.44156 0)
(0.204887 1.23638 0)
(0.125089 1.04288 0)
(0.0700093 0.858639 0)
(0.0386621 0.684416 0)
(0.0288634 0.522149 0)
(0.0382407 0.375042 0)
(0.0637335 0.244978 0)
(0.101761 0.132915 0)
(0.148154 0.03838 0)
(0.199568 -0.0396336 0)
(0.253658 -0.102737 0)
(0.308413 -0.152771 0)
(0.362469 -0.191533 0)
(0.414918 -0.220674 0)
(0.465168 -0.241659 0)
(0.512841 -0.255762 0)
(0.557707 -0.264094 0)
(0.59964 -0.267623 0)
(0.638589 -0.267193 0)
(0.674562 -0.263546 0)
(0.707612 -0.257336 0)
(0.737832 -0.249131 0)
(0.765345 -0.239424 0)
(0.790297 -0.228637 0)
(0.812848 -0.217126 0)
(0.833169 -0.205191 0)
(0.851436 -0.193076 0)
(0.867822 -0.180976 0)
(0.882496 -0.169046 0)
(0.895618 -0.157405 0)
(0.907339 -0.146143 0)
(0.917799 -0.135321 0)
(0.92713 -0.12498 0)
(0.93545 -0.115141 0)
(0.942864 -0.105816 0)
(0.949469 -0.0970019 0)
(0.955348 -0.0886892 0)
(0.960579 -0.0808604 0)
(0.965228 -0.0734933 0)
(0.969355 -0.0665621 0)
(0.97301 -0.0600383 0)
(0.97624 -0.0538943 0)
(0.979084 -0.0480974 0)
(0.981576 -0.042617 0)
(0.983746 -0.0374221 0)
(0.985619 -0.0324815 0)
(0.987217 -0.0277641 0)
(0.988557 -0.0232384 0)
(0.989656 -0.0188755 0)
(0.990524 -0.0146457 0)
(0.991175 -0.01052 0)
(0.991592 -0.0064728 0)
(0.991851 -0.00238067 0)
(0.974638 0.189845 0)
(0.914924 0.228367 0)
(0.855156 0.228405 0)
(0.784011 0.211055 0)
(0.709889 0.178249 0)
(0.635704 0.12949 0)
(0.556814 0.0631963 0)
(0.472522 -0.022938 0)
(0.385792 -0.134778 0)
(0.299873 -0.278032 0)
(0.219839 -0.45962 0)
(0.154009 -0.686691 0)
(0.114569 -0.966562 0)
(0.12043 -1.30736 0)
(0.198121 -1.71016 -9.01162e-32)
(0.380226 -2.16786 9.01162e-32)
(0.706169 -2.6624 0)
(1.21799 -3.15053 0)
(1.94789 -3.55692 0)
(2.89508 -3.76682 0)
(3.99479 -3.64118 0)
(5.10287 -3.07098 0)
(5.99616 -2.03228 0)
(6.45916 -0.687908 0)
(6.40961 0.695435 0)
(5.92101 1.88234 0)
(5.14769 2.74493 0)
(4.25084 3.25349 0)
(3.36158 3.45527 0)
(2.56246 3.42836 0)
(1.89035 3.25553 0)
(1.351 2.99692 0)
(0.931702 2.70007 0)
(0.613972 2.39229 0)
(0.378707 2.09381 0)
(0.206981 1.81447 0)
(0.0817095 1.55988 0)
(-0.00998702 1.32605 0)
(-0.0771564 1.10702 0)
(-0.121902 0.898406 0)
(-0.141891 0.699563 0)
(-0.136974 0.514338 0)
(-0.109291 0.347795 0)
(-0.0638014 0.202869 0)
(-0.00619591 0.0804507 0)
(0.0587698 -0.0203009 0)
(0.127441 -0.101122 0)
(0.196573 -0.164655 0)
(0.26423 -0.213523 0)
(0.329226 -0.25011 0)
(0.390886 -0.276469 0)
(0.44886 -0.294319 0)
(0.502987 -0.305097 0)
(0.553213 -0.310017 0)
(0.59956 -0.310116 0)
(0.642098 -0.306295 0)
(0.680937 -0.299343 0)
(0.716223 -0.289948 0)
(0.748133 -0.27871 0)
(0.776865 -0.266145 0)
(0.802639 -0.252689 0)
(0.82568 -0.238709 0)
(0.846219 -0.224507 0)
(0.864482 -0.210325 0)
(0.880692 -0.196352 0)
(0.895055 -0.182734 0)
(0.907768 -0.169578 0)
(0.91901 -0.15696 0)
(0.928945 -0.144927 0)
(0.937726 -0.133506 0)
(0.945484 -0.122709 0)
(0.952339 -0.112531 0)
(0.958395 -0.102959 0)
(0.963744 -0.0939719 0)
(0.968468 -0.0855418 0)
(0.972639 -0.0776382 0)
(0.976317 -0.0702276 0)
(0.979556 -0.0632737 0)
(0.982403 -0.0567416 0)
(0.984898 -0.0505941 0)
(0.987075 -0.0447942 0)
(0.988962 -0.0393071 0)
(0.990586 -0.0340973 0)
(0.991967 -0.02913 0)
(0.993123 -0.0243712 0)
(0.994068 -0.0197877 0)
(0.994812 -0.0153479 0)
(0.99537 -0.0110206 0)
(0.995724 -0.00677796 0)
(0.995946 -0.00248998 0)
(0.972408 0.24389 0)
(0.905502 0.296752 0)
(0.836966 0.300293 0)
(0.7555 0.286512 0)
(0.668967 0.258502 0)
(0.57931 0.215745 0)
(0.482035 0.155643 0)
(0.374671 0.0747084 0)
(0.257834 -0.0321978 0)
(0.134201 -0.173314 0)
(0.00787443 -0.359972 0)
(-0.113442 -0.602311 0)
(-0.219454 -0.913836 0)
(-0.288535 -1.30825 0)
(-0.285949 -1.79659 0)
(-0.169933 -2.38281 0)
(0.119019 -3.06578 0)