/*--------------------------------*- C++ -*----------------------------------*\
| =========                 |                                                 |
| \\      /  F ield         | OpenFOAM: The Open Source CFD Toolbox           |
|  \\    /   O peration     | Version:  v1806                                 |
|   \\  /    A nd           | Web:      www.OpenFOAM.com                      |
|    \\/     M anipulation  |                                                 |
\*---------------------------------------------------------------------------*/
FoamFile
{
    version     2.0;
    format      ascii;
    class       vectorField;
    location    "0.06";
    object      currentcloudofpoints;
}
// * * * * * * * * * * * * * * * * * * * * * * * * * * * * * * * * * * * * * //


648
(
(0.229768 0.433499 0.05)
(0.726005 0.55322 0.05)
(0.353768 0.634976 0.05)
(0.631101 0.376278 0.05)
(0.236147 0.417334 0.05)
(0.244752 0.402459 0.05)
(0.25615 0.391067 0.05)
(0.268791 0.383238 0.05)
(0.282868 0.378699 0.05)
(0.296769 0.378169 0.05)
(0.309434 0.378744 0.05)
(0.320714 0.379554 0.05)
(0.33125 0.377968 0.05)
(0.340176 0.372419 0.05)
(0.347466 0.363566 0.05)
(0.355206 0.351487 0.05)
(0.363195 0.33606 0.05)
(0.371982 0.319352 0.05)
(0.381872 0.302592 0.05)
(0.394493 0.284176 0.05)
(0.40857 0.269424 0.05)
(0.423156 0.258149 0.05)
(0.440919 0.249497 0.05)
(0.460054 0.24245 0.05)
(0.482981 0.235183 0.05)
(0.515715 0.225698 0.05)
(0.561324 0.217581 0.05)
(0.611527 0.222206 0.05)
(0.655139 0.238294 0.05)
(0.692202 0.259472 0.05)
(0.723887 0.283625 0.05)
(0.748426 0.311567 0.05)
(0.765712 0.346268 0.05)
(0.774497 0.387988 0.05)
(0.771691 0.43232 0.05)
(0.760673 0.470031 0.05)
(0.749214 0.498605 0.05)
(0.740316 0.520067 0.05)
(0.733176 0.53756 0.05)
(0.718077 0.567272 0.05)
(0.709238 0.579388 0.05)
(0.699594 0.590197 0.05)
(0.688438 0.599887 0.05)
(0.676565 0.608176 0.05)
(0.665024 0.615593 0.05)
(0.654682 0.622719 0.05)
(0.647032 0.630451 0.05)
(0.642728 0.6392 0.05)
(0.641614 0.649184 0.05)
(0.641923 0.661284 0.05)
(0.642605 0.675762 0.05)
(0.641051 0.692975 0.05)
(0.636499 0.712177 0.05)
(0.627294 0.73171 0.05)
(0.614684 0.749289 0.05)
(0.599051 0.762574 0.05)
(0.5839 0.77091 0.05)
(0.568799 0.774715 0.05)
(0.552504 0.778168 0.05)
(0.530232 0.786977 0.05)
(0.49073 0.806126 0.05)
(0.428069 0.816387 0.05)
(0.371332 0.802765 0.05)
(0.328797 0.786427 0.05)
(0.294525 0.767376 0.05)
(0.265707 0.746069 0.05)
(0.24162 0.723078 0.05)
(0.219379 0.683856 0.05)
(0.208197 0.625988 0.05)
(0.210893 0.562554 0.05)
(0.218411 0.518143 0.05)
(0.221809 0.490608 0.05)
(0.223593 0.469742 0.05)
(0.225746 0.450986 0.05)
(0.36198 0.62195 0.05)
(0.371943 0.607622 0.05)
(0.383762 0.591911 0.05)
(0.396225 0.573485 0.05)
(0.407646 0.551958 0.05)
(0.417061 0.526491 0.05)
(0.424608 0.496794 0.05)
(0.433394 0.463686 0.05)
(0.44796 0.432374 0.05)
(0.471289 0.408513 0.05)
(0.496697 0.396428 0.05)
(0.517057 0.393232 0.05)
(0.533251 0.394528 0.05)
(0.547197 0.396628 0.05)
(0.560185 0.396682 0.05)
(0.573217 0.392706 0.05)
(0.585947 0.3853 0.05)
(0.597038 0.375496 0.05)
(0.605937 0.364626 0.05)
(0.612979 0.352916 0.05)
(0.61732 0.338701 0.05)
(0.617478 0.322566 0.05)
(0.613843 0.304452 0.05)
(0.611064 0.289204 0.05)
(0.616878 0.28071 0.05)
(0.636924 0.282936 0.05)
(0.667519 0.297912 0.05)
(0.696288 0.321237 0.05)
(0.713732 0.345301 0.05)
(0.720189 0.365658 0.05)
(0.718308 0.377516 0.05)
(0.709348 0.37832 0.05)
(0.693127 0.370809 0.05)
(0.671225 0.364534 0.05)
(0.649164 0.366777 0.05)
(0.61614 0.390388 0.05)
(0.603818 0.405912 0.05)
(0.594356 0.421918 0.05)
(0.587235 0.439324 0.05)
(0.582115 0.45918 0.05)
(0.577033 0.484929 0.05)
(0.567378 0.521175 0.05)
(0.544917 0.560867 0.05)
(0.508876 0.594126 0.05)
(0.47602 0.619089 0.05)
(0.450734 0.637358 0.05)
(0.429896 0.651025 0.05)
(0.410211 0.659476 0.05)
(0.392799 0.664159 0.05)
(0.377777 0.67108 0.05)
(0.364882 0.680992 0.05)
(0.358287 0.695444 0.05)
(0.358554 0.712294 0.05)
(0.364919 0.728762 0.05)
(0.369999 0.738481 0.05)
(0.367759 0.739083 0.05)
(0.359494 0.73262 0.05)
(0.348966 0.722461 0.05)
(0.340092 0.713621 0.05)
(0.331974 0.7084 0.05)
(0.322343 0.701675 0.05)
(0.313898 0.693778 0.05)
(0.309538 0.68616 0.05)
(0.309632 0.679942 0.05)
(0.313427 0.675211 0.05)
(0.319133 0.670851 0.05)
(0.325473 0.666153 0.05)
(0.332088 0.660742 0.05)
(0.339087 0.654189 0.05)
(0.346212 0.645942 0.05)
(0.68313 0.527712 0.05)
(0.290197 0.60048 0.05)
(0.332963 0.620206 0.05)
(0.650379 0.446283 0.05)
(0.395479 0.53733 0.05)
(0.573698 0.354583 0.05)
(0.436705 0.672709 0.05)
(0.469312 0.389589 0.05)
(0.428665 0.751521 0.05)
(0.59805 0.521612 0.05)
(0.576308 0.312305 0.05)
(0.269504 0.529731 0.05)
(0.591892 0.670797 0.05)
(0.758579 0.412551 0.05)
(0.548671 0.749408 0.05)
(0.28525 0.723761 0.05)
(0.494988 0.274723 0.05)
(0.662703 0.261087 0.05)
(0.361593 0.606913 0.05)
(0.342067 0.633288 0.05)
(0.698883 0.44361 0.05)
(0.705627 0.47793 0.05)
(0.320138 0.651422 0.05)
(0.301161 0.651529 0.05)
(0.415382 0.50503 0.05)
(0.395237 0.559638 0.05)
(0.625597 0.400093 0.05)
(0.659644 0.386981 0.05)
(0.740187 0.441171 0.05)
(0.747253 0.372273 0.05)
(0.578559 0.522049 0.05)
(0.600718 0.447571 0.05)
(0.505639 0.383604 0.05)
(0.450037 0.4188 0.05)
(0.426532 0.663488 0.05)
(0.48661 0.620673 0.05)
(0.607228 0.333399 0.05)
(0.601037 0.359533 0.05)
(0.579471 0.377871 0.05)
(0.558094 0.380152 0.05)
(0.542788 0.717423 0.05)
(0.49547 0.755332 0.05)
(0.374409 0.725828 0.05)
(0.377582 0.684895 0.05)
(0.277334 0.639556 0.05)
(0.262957 0.635743 0.05)
(0.447058 0.789967 0.05)
(0.528772 0.750952 0.05)
(0.276917 0.68971 0.05)
(0.334757 0.739001 0.05)
(0.547347 0.261414 0.05)
(0.573404 0.283086 0.05)
(0.690787 0.290658 0.05)
(0.601143 0.247245 0.05)
(0.721821 0.495709 0.05)
(0.65867 0.487546 0.05)
(0.311959 0.633039 0.05)
(0.364117 0.590004 0.05)
(0.627549 0.441407 0.05)
(0.282887 0.559498 0.05)
(0.421051 0.458515 0.05)
(0.591597 0.343463 0.05)
(0.539874 0.595095 0.05)
(0.496491 0.698941 0.05)
(0.538914 0.363963 0.05)
(0.387718 0.702881 0.05)
(0.738873 0.327817 0.05)
(0.540027 0.291836 0.05)
(0.588765 0.70408 0.05)
(0.413626 0.792147 0.05)
(0.237613 0.601244 0.05)
(0.552934 0.237761 0.05)
(0.759522 0.351444 0.05)
(0.755103 0.457726 0.05)
(0.72616 0.514667 0.05)
(0.696625 0.551681 0.05)
(0.307992 0.451604 0.05)
(0.346004 0.528311 0.05)
(0.632247 0.581145 0.05)
(0.605414 0.59972 0.05)
(0.450725 0.279744 0.05)
(0.527748 0.233884 0.05)
(0.376548 0.536496 0.05)
(0.395437 0.480513 0.05)
(0.620702 0.707368 0.05)
(0.597192 0.738199 0.05)
(0.346891 0.779618 0.05)
(0.237862 0.690598 0.05)
(0.224335 0.568554 0.05)
(0.266537 0.468238 0.05)
(0.460016 0.335948 0.05)
(0.437761 0.312653 0.05)
(0.570645 0.751659 0.05)
(0.471909 0.803277 0.05)
(0.573817 0.616207 0.05)
(0.523704 0.640026 0.05)
(0.455223 0.364179 0.05)
(0.468361 0.346249 0.05)
(0.561994 0.638271 0.05)
(0.621925 0.673074 0.05)
(0.409186 0.433224 0.05)
(0.436807 0.386168 0.05)
(0.623972 0.234942 0.05)
(0.720811 0.292685 0.05)
(0.342279 0.565472 0.05)
(0.357804 0.562346 0.05)
(0.672118 0.564355 0.05)
(0.64796 0.571775 0.05)
(0.356318 0.622177 0.05)
(0.34795 0.635113 0.05)
(0.366605 0.607739 0.05)
(0.351156 0.621258 0.05)
(0.378916 0.591965 0.05)
(0.345661 0.61856 0.05)
(0.336566 0.628844 0.05)
(0.676911 0.37892 0.05)
(0.700067 0.397778 0.05)
(0.700843 0.465024 0.05)
(0.713513 0.419892 0.05)
(0.678488 0.498708 0.05)
(0.688739 0.507313 0.05)
(0.721474 0.432392 0.05)
(0.337717 0.647536 0.05)
(0.330039 0.654364 0.05)
(0.311679 0.653728 0.05)
(0.322326 0.65937 0.05)
(0.299915 0.63805 0.05)
(0.289716 0.629537 0.05)
(0.314351 0.662755 0.05)
(0.406936 0.544009 0.05)
(0.395575 0.567165 0.05)
(0.416084 0.51666 0.05)
(0.406561 0.534582 0.05)
(0.424162 0.484337 0.05)
(0.405792 0.523481 0.05)
(0.395183 0.55018 0.05)
(0.627451 0.386665 0.05)
(0.645115 0.376834 0.05)
(0.614018 0.401407 0.05)
(0.639366 0.389398 0.05)
(0.603969 0.417127 0.05)
(0.649482 0.404777 0.05)
(0.664937 0.409392 0.05)
(0.739748 0.378463 0.05)
(0.730625 0.348011 0.05)
(0.739628 0.406703 0.05)
(0.748689 0.407322 0.05)
(0.732505 0.426197 0.05)
(0.750125 0.432279 0.05)
(0.75518 0.394191 0.05)
(0.588086 0.463868 0.05)
(0.594242 0.440148 0.05)
(0.579764 0.498123 0.05)
(0.591316 0.478538 0.05)
(0.563844 0.540712 0.05)
(0.590107 0.511503 0.05)
(0.602551 0.471665 0.05)
(0.461379 0.411954 0.05)
(0.439696 0.440228 0.05)
(0.489272 0.394433 0.05)
(0.477982 0.395877 0.05)
(0.513599 0.387447 0.05)
(0.490931 0.383605 0.05)
(0.463316 0.400742 0.05)
(0.480029 0.620567 0.05)
(0.518864 0.590887 0.05)
(0.450605 0.642136 0.05)
(0.452132 0.646078 0.05)
(0.428032 0.656889 0.05)
(0.4275 0.669981 0.05)
(0.455862 0.649811 0.05)
(0.599484 0.368396 0.05)
(0.590325 0.377813 0.05)
(0.606871 0.357648 0.05)
(0.606444 0.348877 0.05)
(0.612033 0.344475 0.05)
(0.596622 0.320604 0.05)
(0.600571 0.335494 0.05)
(0.553179 0.389203 0.05)
(0.538848 0.387315 0.05)
(0.565027 0.389296 0.05)
(0.569067 0.380605 0.05)
(0.576359 0.386294 0.05)
(0.580338 0.367181 0.05)
(0.570415 0.369158 0.05)
(0.414736 0.766916 0.05)
(0.377277 0.736991 0.05)
(0.450552 0.777855 0.05)
(0.524519 0.731878 0.05)
(0.468812 0.777399 0.05)
(0.56538 0.676609 0.05)
(0.543626 0.678141 0.05)
(0.384521 0.673558 0.05)
(0.401626 0.667472 0.05)
(0.370014 0.682953 0.05)
(0.368641 0.698369 0.05)
(0.362913 0.699338 0.05)
(0.404359 0.750309 0.05)
(0.3783 0.720896 0.05)
(0.28887 0.666558 0.05)
(0.285948 0.672432 0.05)
(0.295589 0.664942 0.05)
(0.270346 0.63725 0.05)
(0.303756 0.664517 0.05)
(0.263127 0.581831 0.05)
(0.256359 0.582543 0.05)
(0.442475 0.784222 0.05)
(0.465028 0.781236 0.05)
(0.407766 0.774705 0.05)
(0.493705 0.77715 0.05)
(0.371557 0.753874 0.05)
(0.514826 0.769872 0.05)
(0.548941 0.741026 0.05)
(0.323274 0.717366 0.05)
(0.341292 0.730617 0.05)
(0.305287 0.703255 0.05)
(0.304792 0.716218 0.05)
(0.291114 0.68773 0.05)
(0.274298 0.701602 0.05)
(0.314933 0.736259 0.05)
(0.601306 0.300222 0.05)
(0.611009 0.322229 0.05)
(0.586827 0.280265 0.05)
(0.557303 0.271501 0.05)
(0.578486 0.266752 0.05)
(0.519491 0.266505 0.05)
(0.527395 0.275443 0.05)
(0.618911 0.261221 0.05)
(0.59026 0.257913 0.05)
(0.660137 0.2791 0.05)
(0.645034 0.262868 0.05)
(0.700076 0.308274 0.05)
(0.676349 0.274115 0.05)
(0.631528 0.250597 0.05)
(0.721733 0.469078 0.05)
(0.708207 0.498624 0.05)
(0.7304 0.473297 0.05)
(0.701376 0.51726 0.05)
(0.743588 0.460909 0.05)
(0.686643 0.402968 0.05)
(0.67993 0.428948 0.05)
(0.679774 0.464359 0.05)
(0.658565 0.458647 0.05)
(0.665139 0.515344 0.05)
(0.332166 0.644383 0.05)
(0.326786 0.638915 0.05)
(0.315044 0.644084 0.05)
(0.322791 0.629615 0.05)
(0.299297 0.624337 0.05)
(0.378922 0.585669 0.05)
(0.379576 0.577779 0.05)
(0.362173 0.599546 0.05)
(0.381061 0.567166 0.05)
(0.347117 0.608693 0.05)
(0.610673 0.421111 0.05)
(0.61576 0.434486 0.05)
(0.630265 0.411825 0.05)
(0.612554 0.472519 0.05)
(0.641577 0.432386 0.05)
(0.290327 0.648466 0.05)
(0.279153 0.618062 0.05)
(0.270264 0.599025 0.05)
(0.284486 0.582806 0.05)
(0.279638 0.539907 0.05)
(0.427967 0.46049 0.05)
(0.433706 0.437898 0.05)
(0.418045 0.481673 0.05)
(0.440256 0.419169 0.05)
(0.408653 0.500841 0.05)
(0.590838 0.371684 0.05)
(0.598655 0.352785 0.05)
(0.590516 0.363007 0.05)
(0.590689 0.329542 0.05)
(0.585432 0.351723 0.05)
(0.543459 0.575499 0.05)
(0.511481 0.607614 0.05)
(0.564199 0.561887 0.05)
(0.482383 0.636008 0.05)
(0.578813 0.557929 0.05)
(0.422146 0.766525 0.05)
(0.511299 0.721967 0.05)
(0.459068 0.76369 0.05)
(0.550789 0.660006 0.05)
(0.466376 0.742538 0.05)
(0.537102 0.37969 0.05)
(0.553228 0.371322 0.05)
(0.528145 0.373374 0.05)
(0.560143 0.360068 0.05)
(0.508015 0.371629 0.05)
(0.400554 0.674174 0.05)
(0.380083 0.693113 0.05)
(0.400999 0.682136 0.05)
(0.389893 0.726734 0.05)
(0.406459 0.690494 0.05)
(0.729309 0.330796 0.05)
(0.745395 0.349213 0.05)
(0.720823 0.311479 0.05)
(0.755324 0.366337 0.05)
(0.708376 0.293425 0.05)
(0.599772 0.310053 0.05)
(0.556839 0.284476 0.05)
(0.581847 0.300299 0.05)
(0.511216 0.28656 0.05)
(0.562235 0.300567 0.05)
(0.543859 0.729061 0.05)
(0.568854 0.713863 0.05)
(0.57368 0.69255 0.05)
(0.574608 0.723709 0.05)
(0.594038 0.686465 0.05)
(0.379161 0.765674 0.05)
(0.368459 0.766773 0.05)
(0.438905 0.793466 0.05)
(0.345453 0.762637 0.05)
(0.492318 0.786542 0.05)
(0.263776 0.657992 0.05)
(0.24813 0.606061 0.05)
(0.24864 0.649499 0.05)
(0.250062 0.55635 0.05)
(0.243943 0.664975 0.05)
(0.561203 0.24942 0.05)
(0.575921 0.239666 0.05)
(0.535827 0.25017 0.05)
(0.606397 0.238426 0.05)
(0.51274 0.254754 0.05)
(0.754232 0.329372 0.05)
(0.768323 0.371599 0.05)
(0.766542 0.403461 0.05)
(0.768966 0.421599 0.05)
(0.762208 0.379536 0.05)
(0.757032 0.439365 0.05)
(0.756065 0.467506 0.05)
(0.72118 0.539315 0.05)
(0.711344 0.554815 0.05)
(0.73122 0.520079 0.05)
(0.709929 0.537452 0.05)
(0.743853 0.495094 0.05)
(0.705681 0.529137 0.05)
(0.685302 0.542767 0.05)
(0.266247 0.424239 0.05)
(0.286493 0.416847 0.05)
(0.251854 0.441689 0.05)
(0.340797 0.495025 0.05)
(0.242936 0.464966 0.05)
(0.318961 0.547834 0.05)
(0.309617 0.581116 0.05)
(0.663097 0.595904 0.05)
(0.65113 0.602272 0.05)
(0.618412 0.588029 0.05)
(0.639293 0.609114 0.05)
(0.608688 0.549184 0.05)
(0.59326 0.574073 0.05)
(0.628963 0.616441 0.05)
(0.44699 0.262193 0.05)
(0.475476 0.24812 0.05)
(0.477185 0.25792 0.05)
(0.515808 0.232288 0.05)
(0.470382 0.283593 0.05)
(0.49434 0.255536 0.05)
(0.57048 0.222036 0.05)
(0.359431 0.458046 0.05)
(0.365969 0.459033 0.05)
(0.387445 0.513673 0.05)
(0.369893 0.452702 0.05)
(0.382503 0.549599 0.05)
(0.39811 0.510878 0.05)
(0.372552 0.442329 0.05)
(0.619796 0.729123 0.05)
(0.607007 0.744465 0.05)
(0.611295 0.723217 0.05)
(0.5923 0.754803 0.05)
(0.612787 0.684906 0.05)
(0.6085 0.706368 0.05)
(0.57766 0.761048 0.05)
(0.364963 0.79371 0.05)
(0.312567 0.769774 0.05)
(0.284902 0.74203 0.05)
(0.269695 0.738947 0.05)
(0.318236 0.757106 0.05)
(0.251072 0.698031 0.05)
(0.236024 0.702143 0.05)
(0.218935 0.659395 0.05)
(0.215084 0.583925 0.05)
(0.248114 0.503422 0.05)
(0.227591 0.524044 0.05)
(0.253808 0.517439 0.05)
(0.286402 0.486117 0.05)
(0.237815 0.486061 0.05)
(0.398371 0.324172 0.05)
(0.405483 0.304657 0.05)
(0.453187 0.327584 0.05)
(0.417091 0.287455 0.05)
(0.542757 0.318815 0.05)
(0.517071 0.313389 0.05)
(0.431936 0.272901 0.05)
(0.564229 0.764689 0.05)
(0.539067 0.775374 0.05)
(0.540205 0.767859 0.05)
(0.490282 0.801227 0.05)
(0.567439 0.743203 0.05)
(0.521242 0.775273 0.05)
(0.41559 0.809429 0.05)
(0.622918 0.622453 0.05)
(0.616968 0.629967 0.05)
(0.535397 0.630275 0.05)
(0.616742 0.637683 0.05)
(0.485296 0.645946 0.05)
(0.435586 0.68774 0.05)
(0.622274 0.647799 0.05)
(0.385786 0.380704 0.05)
(0.389364 0.36723 0.05)
(0.47298 0.352282 0.05)
(0.391621 0.352871 0.05)
(0.53649 0.347201 0.05)
(0.551389 0.339031 0.05)
(0.394518 0.33714 0.05)
(0.627695 0.658247 0.05)
(0.632845 0.674953 0.05)
(0.597964 0.647855 0.05)
(0.632842 0.694435 0.05)
(0.439964 0.719929 0.05)
(0.503084 0.666562 0.05)
(0.627465 0.714892 0.05)
(0.375427 0.433137 0.05)
(0.378818 0.419775 0.05)
(0.424189 0.40605 0.05)
(0.382374 0.405809 0.05)
(0.437352 0.409812 0.05)
(0.468711 0.380223 0.05)
(0.385425 0.391777 0.05)
(0.614465 0.227686 0.05)
(0.662978 0.247654 0.05)
(0.677339 0.260879 0.05)
(0.704628 0.273943 0.05)
(0.639795 0.245093 0.05)
(0.697789 0.278848 0.05)
(0.736432 0.303037 0.05)
(0.307309 0.421738 0.05)
(0.330702 0.43683 0.05)
(0.345221 0.573979 0.05)
(0.345483 0.449384 0.05)
(0.324024 0.609177 0.05)
(0.338201 0.601653 0.05)
(0.354198 0.455645 0.05)
(0.703069 0.564479 0.05)
(0.692526 0.574812 0.05)
(0.656711 0.566195 0.05)
(0.682058 0.583234 0.05)
(0.640387 0.527764 0.05)
(0.630327 0.51799 0.05)
(0.672063 0.590634 0.05)
(0.68319 0.559592 0.05)
(0.665854 0.542592 0.05)
(0.650743 0.534874 0.05)
(0.63896 0.574283 0.05)
(0.623004 0.511962 0.05)
(0.615697 0.524257 0.05)
(0.340674 0.557374 0.05)
(0.308005 0.601904 0.05)
(0.314383 0.611039 0.05)
(0.366581 0.55402 0.05)
(0.351893 0.591323 0.05)
(0.367794 0.573529 0.05)
(0.739205 0.491514 0.05)
(0.739126 0.480776 0.05)
(0.720941 0.509283 0.05)
(0.402392 0.456426 0.05)
(0.408597 0.476481 0.05)
(0.420314 0.440976 0.05)
(0.286588 0.452385 0.05)
(0.309787 0.49519 0.05)
(0.319291 0.521687 0.05)
(0.58946 0.608173 0.05)
(0.570242 0.591827 0.05)
(0.533433 0.614197 0.05)
(0.5225 0.644185 0.05)
(0.414067 0.709279 0.05)
(0.416381 0.724345 0.05)
(0.471145 0.340166 0.05)
(0.562055 0.332556 0.05)
(0.55972 0.324892 0.05)
(0.623827 0.689461 0.05)
(0.558875 0.648404 0.05)
(0.600508 0.662213 0.05)
(0.441186 0.298023 0.05)
(0.499935 0.307892 0.05)
(0.478402 0.300805 0.05)
(0.450808 0.372373 0.05)
(0.49925 0.364271 0.05)
(0.523416 0.354164 0.05)
(0.743947 0.319492 0.05)
(0.729935 0.308399 0.05)
(0.750878 0.340645 0.05)
(0.585691 0.744122 0.05)
(0.599232 0.717429 0.05)
(0.586262 0.728757 0.05)
(0.221296 0.631939 0.05)
(0.22867 0.633747 0.05)
(0.23353 0.567187 0.05)
(0.405351 0.801378 0.05)
(0.453054 0.802139 0.05)
(0.380132 0.785987 0.05)
(0.575168 0.226372 0.05)
(0.535827 0.236811 0.05)
(0.587508 0.231143 0.05)
)


// ************************************************************************* //
