/*--------------------------------*- C++ -*----------------------------------*\
| =========                 |                                                 |
| \\      /  F ield         | OpenFOAM: The Open Source CFD Toolbox           |
|  \\    /   O peration     | Version:  v1806                                 |
|   \\  /    A nd           | Web:      www.OpenFOAM.com                      |
|    \\/     M anipulation  |                                                 |
\*---------------------------------------------------------------------------*/
FoamFile
{
    version     2.0;
    format      ascii;
    class       volScalarField;
    location    "0.06";
    object      p;
}
// * * * * * * * * * * * * * * * * * * * * * * * * * * * * * * * * * * * * * //

dimensions      [0 2 -2 0 0 0 0];


internalField   nonuniform List<scalar> 
5400
(
2.19731
1.75542
1.54118
1.44499
1.38395
1.33905
1.30376
1.27317
1.24419
1.21529
1.18558
1.15437
1.12102
1.08514
1.04607
1.00354
0.957308
0.907281
0.853495
0.796156
0.735657
0.672576
0.607672
0.54186
0.476179
0.411744
0.349703
0.291166
0.237143
0.188494
0.145883
0.109743
0.0802667
0.0574139
0.0409314
0.0303842
0.0251943
0.0246878
0.0281374
0.0348018
0.0439599
0.0549376
0.0671244
0.0799822
0.0930548
0.105966
0.118414
0.130166
0.141051
0.150942
0.15977
0.167491
0.174104
0.179606
0.18403
0.18745
0.189864
0.191342
0.191943
0.191714
0.190728
0.189036
0.186679
0.183719
0.180208
0.176185
0.1717
0.166795
0.161498
0.155848
0.149883
0.143627
0.137109
0.130357
0.123391
0.11623
0.108898
0.101412
0.0937852
0.0860326
0.0781694
0.0702065
0.0621542
0.0540254
0.0458319
0.0375814
0.0292818
0.0209451
0.0125815
0.00419857
1.78071
1.62704
1.50888
1.43962
1.38794
1.34445
1.30852
1.27733
1.24787
1.21865
1.1888
1.15758
1.12433
1.08834
1.04927
1.00673
0.960418
0.910204
0.856108
0.798327
0.737253
0.673475
0.60777
0.541084
0.474499
0.409181
0.346304
0.287047
0.232461
0.183435
0.140647
0.104534
0.0752774
0.0528119
0.0368492
0.0269138
0.0223866
0.0225566
0.026665
0.0339441
0.0436524
0.0551035
0.067684
0.0808573
0.0941698
0.10725
0.119807
0.131614
0.142512
0.152384
0.161169
0.168828
0.175364
0.180792
0.185145
0.188446
0.190765
0.192157
0.192678
0.19238
0.191321
0.189561
0.187149
0.184134
0.180572
0.176508
0.171984
0.167041
0.161714
0.156038
0.150046
0.143768
0.137232
0.130463
0.123482
0.116308
0.108964
0.101467
0.0938319
0.0860733
0.078203
0.0702322
0.0621743
0.0540419
0.0458442
0.0375891
0.0292871
0.0209502
0.0125868
0.00420133
1.62734
1.55455
1.48109
1.43008
1.38618
1.34521
1.31029
1.27985
1.25105
1.22247
1.19329
1.16274
1.13009
1.09474
1.05609
1.0138
0.967522
0.917074
0.862439
0.803792
0.74152
0.676228
0.608734
0.540054
0.471361
0.403937
0.339043
0.278002
0.221956
0.171873
0.128479
0.092226
0.0632728
0.0415047
0.0265603
0.0178777
0.014748
0.0163751
0.0219263
0.0305747
0.0415347
0.0540904
0.0676126
0.0815629
0.0954917
0.109039
0.121931
0.133959
0.144985
0.154908
0.163678
0.171283
0.177728
0.183038
0.187257
0.190426
0.192604
0.19386
0.194239
0.193808
0.192625
0.190741
0.188217
0.185105
0.181449
0.177296
0.172694
0.167679
0.162284
0.156551
0.150508
0.14418
0.137597
0.130788
0.123772
0.116566
0.109191
0.101667
0.0940066
0.0862232
0.0783304
0.0703406
0.0622653
0.054116
0.0459027
0.0376343
0.0293208
0.0209739
0.0126014
0.00420652
1.52856
1.49018
1.44458
1.41045
1.37627
1.34076
1.30914
1.28101
1.25404
1.22705
1.19933
1.17013
1.13872
1.10448
1.06666
1.02492
0.97884
0.92815
0.872775
0.81285
0.748749
0.681098
0.610782
0.538919
0.466826
0.39594
0.327807
0.263844
0.205384
0.153532
0.109101
0.0725625
0.0440431
0.0233453
0.00999015
0.00327607
0.00234894
0.00627504
0.0141026
0.0249097
0.0378414
0.0521371
0.0671426
0.0823156
0.0972169
0.111509
0.12494
0.137333
0.148574
0.158597
0.167375
0.174914
0.181238
0.186394
0.190429
0.193403
0.195382
0.196433
0.196613
0.195988
0.194619
0.192565
0.18988
0.186615
0.182817
0.178537
0.173818
0.168693
0.163201
0.157378
0.151251
0.144848
0.138199
0.131326
0.124251
0.116993
0.109573
0.102003
0.0942999
0.0864781
0.0785506
0.0705279
0.0624224
0.0542465
0.0460091
0.0377178
0.029382
0.0210155
0.0126268
0.0042154
1.46267
1.43793
1.40882
1.38759
1.36238
1.33304
1.30582
1.28106
1.25688
1.23235
1.20687
1.17973
1.15019
1.11747
1.08115
1.04039
0.994754
0.943887
0.887624
0.826035
0.759466
0.688569
0.614309
0.537955
0.461029
0.385234
0.312368
0.244164
0.182203
0.127788
0.0818534
0.0449069
0.0170211
-0.00212729
-0.0131964
-0.0170955
-0.0148913
-0.00771492
0.00331163
0.0171314
0.0327936
0.0494792
0.0665087
0.0833417
0.099553
0.114841
0.128986
0.141857
0.153383
0.163531
0.172309
0.179757
0.185918
0.190864
0.19466
0.19737
0.199089
0.19987
0.199786
0.198909
0.197298
0.195013
0.192116
0.188655
0.18467
0.180216
0.17534
0.170075
0.164453
0.158509
0.15227
0.145766
0.139025
0.132069
0.124917
0.117588
0.110101
0.102471
0.0947118
0.0868391
0.0788633
0.0707964
0.062651
0.0544376
0.0461633
0.0378377
0.0294719
0.0210776
0.0126633
0.0042274
1.41559
1.39685
1.37723
1.36507
1.34723
1.32378
1.30132
1.28054
1.25987
1.23854
1.21605
1.19173
1.1648
1.13448
1.10005
1.06073
1.01587
0.964985
0.907756
0.844148
0.774455
0.699342
0.619875
0.537514
0.454062
0.371579
0.292258
0.21825
0.151503
0.0936064
0.0456675
0.00823817
-0.0186928
-0.0356401
-0.0435249
-0.0435546
-0.0370949
-0.0255507
-0.0102732
0.007504
0.0267114
0.0464659
0.0660623
0.0849722
0.102803
0.119297
0.134296
0.147722
0.159555
0.16982
0.178567
0.185869
0.191811
0.196479
0.199968
0.202347
0.20372
0.204161
0.203752
0.202558
0.200645
0.198077
0.194915
0.191204
0.186993
0.18233
0.177259
0.171812
0.166028
0.159935
0.153557
0.146927
0.140072
0.13301
0.125761
0.118342
0.110772
0.103066
0.0952364
0.0872973
0.079261
0.0711397
0.062944
0.0546822
0.046362
0.0379951
0.0295926
0.0211625
0.0127122
0.00424257
1.37935
1.36361
1.34972
1.34399
1.33214
1.31407
1.29641
1.27996
1.26333
1.24585
1.22707
1.20632
1.18279
1.15558
1.12382
1.08658
1.04301
0.992388
0.934219
0.868295
0.794807
0.714411
0.628278
0.538109
0.446082
0.354742
0.266837
0.185096
0.111993
0.0495256
-0.000958765
-0.0388608
-0.064329
-0.0781649
-0.0816725
-0.0764822
-0.0643737
-0.0471203
-0.0263698
-0.00357058
0.0200675
0.0435941
0.0662951
0.0876637
0.107374
0.125234
0.141162
0.155161
0.167282
0.177614
0.186261
0.193335
0.198972
0.203276
0.206365
0.208319
0.209276
0.209305
0.208494
0.20692
0.204647
0.201741
0.19826
0.194253
0.189769
0.184856
0.179551
0.173889
0.167909
0.161636
0.155095
0.148317
0.141326
0.134138
0.126772
0.119248
0.11158
0.103783
0.0958705
0.0878548
0.079747
0.0715579
0.0632978
0.0549765
0.0466032
0.0381879
0.02974
0.0212661
0.0127726
0.00426175
1.34978
1.33575
1.32561
1.32462
1.3177
1.3045
1.29154
1.27964
1.26747
1.25442
1.24006
1.22369
1.20441
1.18123
1.15305
1.11874
1.07716
1.02731
0.968393
0.899955
0.822007
0.735146
0.640647
0.540501
0.437367
0.334444
0.235255
0.143336
0.0619081
-0.00645303
-0.0600694
-0.0982978
-0.121512
-0.130949
-0.128471
-0.116306
-0.0967978
-0.0721998
-0.0445353
-0.0155103
0.0135177
0.041533
0.0678432
0.0920039
0.113778
0.13308
0.149941
0.164464
0.176788
0.187079
0.195512
0.202248
0.207449
0.211266
0.213816
0.215293
0.215746
0.215285
0.214002
0.211977
0.209277
0.205974
0.202125
0.197774
0.192975
0.187773
0.182199
0.176292
0.170087
0.163607
0.156877
0.149927
0.142778
0.135445
0.127947
0.120299
0.112516
0.104612
0.0966035
0.0884996
0.0803095
0.072043
0.0637107
0.0553229
0.0468888
0.0384162
0.0299126
0.0213862
0.0128434
0.00428505
1.32441
1.31151
1.30405
1.30672
1.30396
1.29521
1.28685
1.27966
1.27233
1.26428
1.25507
1.24396
1.22994
1.21188
1.18843
1.15815
1.11957
1.07127
1.01205
0.941072
0.858049
0.763438
0.658584
0.545806
0.42838
0.310384
0.196407
0.0911319
-0.00115412
-0.0770513
-0.134427
-0.172612
-0.192355
-0.195558
-0.184905
-0.163459
-0.134325
-0.100377
-0.0640965
-0.0274904
0.00794223
0.0411597
0.0715254
0.0987118
0.122631
0.143355
0.161053
0.175952
0.188317
0.1984
0.20644
0.212674
0.217305
0.220514
0.222444
0.223283
0.223128
0.222085
0.220248
0.217698
0.214509
0.210756
0.206487
0.201747
0.196591
0.191058
0.185181
0.178998
0.172539
0.165826
0.158883
0.151738
0.14441
0.136913
0.129264
0.121478
0.113568
0.105548
0.0974309
0.0892256
0.0809413
0.0725889
0.0641785
0.055718
0.0472153
0.0386776
0.0301113
0.021525
0.0129256
0.0043123
1.30157
1.28953
1.28412
1.28979
1.29066
1.28605
1.28219
1.27986
1.27775
1.27528
1.27201
1.26714
1.25956
1.24793
1.23063
1.20586
1.17168
1.12614
1.06744
0.994183
0.90561
0.801885
0.684344
0.555662
0.419883
0.282258
0.148863
0.0260038
-0.0804797
-0.165994
-0.227774
-0.265177
-0.279578
-0.273915
-0.252075
-0.218298
-0.176698
-0.130944
-0.0840585
-0.0383618
0.00452528
0.0435952
0.0783542
0.108676
0.134676
0.156646
0.174951
0.18998
0.202122
0.211744
0.219171
0.224697
0.228569
0.230979
0.232169
0.232262
0.231394
0.229673
0.227198
0.224053
0.220315
0.216052
0.21131
0.206136
0.200581
0.194681
0.188468
0.18198
0.175241
0.168271
0.161096
0.153738
0.146211
0.138532
0.130715
0.122776
0.114727
0.106579
0.0983424
0.0900261
0.0816398
0.0731939
0.0646972
0.056156
0.0475772
0.0389684
0.0303346
0.0216829
0.0130195
0.00434328
1.28002
1.26867
1.26495
1.27319
1.27734
1.27662
1.27723
1.2799
1.28337
1.28708
1.29058
1.29304
1.29326
1.28966
1.28033
1.26301
1.23517
1.19416
1.13737
1.06257
0.968254
0.854048
0.721119
0.572479
0.413108
0.249816
0.090768
-0.0554306
-0.180613
-0.278429
-0.345219
-0.380483
-0.386658
-0.368313
-0.331122
-0.280967
-0.223295
-0.162742
-0.102952
-0.0465492
0.00481269
0.050275
0.0895868
0.122934
0.15075
0.173613
0.192124
0.206887
0.218446
0.22728
0.233804
0.238366
0.241264
0.242721
0.242988
0.2422
0.2405
0.238008
0.234817
0.231006
0.226653
0.221821
0.216558
0.210911
0.204922
0.198622
0.192046
0.185224
0.178176
0.170923
0.163492
0.155899
0.148157
0.14028
0.132284
0.124181
0.11598
0.107692
0.0993279
0.0908944
0.0824003
0.0738538
0.0652623
0.0566329
0.0479721
0.0392864
0.0305793
0.0218563
0.0131227
0.00437737
1.25876
1.24799
1.24573
1.25623
1.26338
1.26637
1.27139
1.27921
1.28859
1.29908
1.31024
1.32127
1.33082
1.33717
1.33806
1.33072
1.3119
1.278
1.22533
1.15046
1.05072
0.924812
0.773435
0.599818
0.410039
0.212951
0.0195997
-0.157851
-0.307936
-0.421583
-0.493819
-0.524529
-0.517994
-0.481402
-0.423087
-0.351188
-0.272876
-0.193942
-0.118667
-0.0498886
0.0108332
0.0629686
0.10671
0.14269
0.17178
0.194932
0.213065
0.227019
0.237507
0.245128
0.250387
0.253693
0.255332
0.255666
0.254845
0.253044
0.250402
0.247039
0.243045
0.2385
0.23348
0.228032
0.222201
0.216037
0.209572
0.202835
0.195865
0.188684
0.181308
0.173756
0.166049
0.158204
0.150231
0.142146
0.133958
0.125678
0.117315
0.108879
0.100379
0.0918214
0.0832128
0.0745592
0.0658673
0.0571448
0.0483975
0.0396293
0.0308421
0.0220416
0.013233
0.00441402
1.23693
1.22667
1.22568
1.2382
1.2481
1.25461
1.26396
1.27699
1.29259
1.31039
1.3301
1.35097
1.37162
1.3902
1.40411
1.41001
1.40379
1.3807
1.33555
1.26321
1.15927
1.02088
0.847727
0.642968
0.413876
0.171964
-0.0676444
-0.287744
-0.471559
-0.605789
-0.683469
-0.705382
-0.679095
-0.616085
-0.528636
-0.427931
-0.323252
-0.221699
-0.128162
-0.0454842
0.0251665
0.0838567
0.131457
0.169262
0.198733
0.221296
0.238233
0.250646
0.259442
0.265351
0.268936
0.270617
0.270814
0.269768
0.267683
0.264724
0.261026
0.256698
0.251823
0.246478
0.240726
0.234609
0.228174
0.22146
0.21449
0.207294
0.199904
0.192339
0.184612
0.176741
0.168743
0.160631
0.152416
0.14411
0.13572
0.127254
0.11872
0.110129
0.101487
0.0927982
0.0840676
0.0753012
0.0665054
0.0576862
0.0488476
0.0399917
0.0311197
0.0222375
0.01335
0.00445316
1.21379
1.20397
1.20407
1.21837
1.23075
1.24053
1.25404
1.27225
1.29424
1.31982
1.3489
1.38091
1.41459
1.44799
1.47829
1.50156
1.51274
1.50561
1.47306
1.4076
1.30219
1.15145
0.953177
0.709824
0.429771
0.127864
-0.175119
-0.454379
-0.684772
-0.846135
-0.928275
-0.933904
-0.87665
-0.775197
-0.647588
-0.508864
-0.370765
-0.241758
-0.12715
-0.0294309
0.0510816
0.115512
0.165768
0.204057
0.232563
0.25329
0.267958
0.277946
0.284329
0.287932
0.289364
0.289127
0.287562
0.284917
0.281389
0.277134
0.272272
0.266893
0.261069
0.25487
0.24834
0.241515
0.234437
0.227135
0.21963
0.211951
0.204121
0.196152
0.188056
0.179852
0.17155
0.163161
0.154692
0.146153
0.137551
0.128891
0.120183
0.111431
0.102641
0.0938152
0.0849582
0.0760754
0.0671717
0.0582514
0.0493166
0.0403687
0.0314091
0.0224431
0.0134736
0.00449465
1.18872
1.17924
1.18024
1.19602
1.21054
1.22325
1.24061
1.26381
1.29216
1.32579
1.36493
1.40929
1.45795
1.50906
1.55969
1.60544
1.64022
1.65615
1.64365
1.59197
1.49025
1.32912
1.10294
0.812266
0.466095
0.0832175
-0.307918
-0.671173
-0.967569
-1.16539
-1.24889
-1.22484
-1.11843
-0.96081
-0.77812
-0.58966
-0.409646
-0.247855
-0.109674
0.00340039
0.0926643
0.160963
0.211727
0.248392
0.274057
0.291359
0.302432
0.308919
0.31205
0.312702
0.311536
0.308999
0.305398
0.300955
0.295837
0.290169
0.284047
0.277538
0.270702
0.263591
0.256237
0.24867
0.240921
0.233008
0.224948
0.216766
0.208476
0.200087
0.191611
0.183061
0.174445
0.165767
0.157035
0.148257
0.139436
0.130578
0.121688
0.11277
0.103828
0.0948624
0.0858775
0.0768758
0.0678607
0.058835
0.0498003
0.040758
0.0317089
0.0226568
0.0136021
0.00453766
1.1612
1.15195
1.1536
1.17049
1.18671
1.20184
1.22254
1.25026
1.28467
1.3263
1.37585
1.43353
1.49902
1.57083
1.64623
1.72058
1.78689
1.83543
1.85362
1.82641
1.73741
1.57108
1.31587
0.968241
0.536527
0.0437066
-0.471845
-0.9576
-1.35073
-1.59942
-1.67686
-1.59825
-1.41238
-1.17275
-0.915469
-0.662906
-0.431161
-0.231095
-0.0676595
0.0596419
0.154862
0.22357
0.271427
0.303435
0.323725
0.335579
0.341499
0.343312
0.342309
0.339405
0.335174
0.329987
0.324097
0.317674
0.310831
0.303653
0.296199
0.288506
0.280614
0.272555
0.264346
0.256012
0.247569
0.239023
0.230391
0.221691
0.212928
0.204109
0.195244
0.186339
0.177396
0.168422
0.159423
0.150402
0.14136
0.132298
0.123222
0.114134
0.105037
0.095931
0.0868162
0.0776933
0.0685643
0.0594313
0.0502953
0.0411572
0.0320165
0.0228755
0.0137329
0.00458111
1.13084
1.12168
1.12366
1.14122
1.15854
1.17537
1.19863
1.23009
1.26984
1.31895
1.37875
1.45011
1.53397
1.62931
1.73417
1.84417
1.95175
2.04545
2.10924
2.12256
2.06133
1.90057
1.61894
1.20493
0.663519
0.0210694
-0.672472
-1.34225
-1.88122
-2.20325
-2.25728
-2.07689
-1.76122
-1.40436
-1.04958
-0.716613
-0.422396
-0.179063
0.0095024
0.147459
0.243376
0.306887
0.346722
0.369869
0.381566
0.385597
0.38466
0.380551
0.374594
0.367531
0.35982
0.351714
0.343358
0.334834
0.326182
0.317429
0.308591
0.299676
0.2907
0.281667
0.272585
0.263466
0.254312
0.245121
0.235907
0.226678
0.217435
0.208179
0.198917
0.18965
0.180378
0.171105
0.161835
0.152568
0.1433
0.134035
0.124772
0.115514
0.106262
0.0970122
0.0877648
0.0785188
0.069275
0.0600343
0.0507964
0.0415611
0.032327
0.0230952
0.0138636
0.00462427
1.09741
1.08816
1.09012
1.10776
1.12541
1.143
1.1677
1.20167
1.2455
1.30095
1.37022
1.45538
1.55773
1.6786
1.81741
1.97068
2.13102
2.28578
2.41551
2.49298
2.48369
2.34865
2.05057
1.56346
0.88397
0.0395769
-0.91002
-1.87341
-2.64207
-3.08397
-3.07701
-2.69604
-2.16275
-1.6439
-1.16719
-0.734857
-0.365809
-0.0751082
0.135289
0.27638
0.364145
0.414059
0.438805
0.44764
0.44681
0.440327
0.430726
0.419689
0.408077
0.396422
0.384958
0.37376
0.362834
0.352144
0.341647
0.331299
0.321063
0.310919
0.300847
0.290831
0.280869
0.270956
0.261081
0.251242
0.241442
0.231679
0.22195
0.212255
0.202594
0.192964
0.183362
0.173791
0.164249
0.154733
0.145241
0.135771
0.126323
0.116896
0.107488
0.0980941
0.0887136
0.0793445
0.0699861
0.0606375
0.0512971
0.0419637
0.0326356
0.0233129
0.0139929
0.00466692
1.0609
1.05136
1.05283
1.06986
1.08688
1.104
1.12867
1.16342
1.2094
1.26913
1.34584
1.44283
1.56327
1.71038
1.88672
2.09071
2.31645
2.55156
2.77404
2.94947
3.02986
2.95594
2.66499
2.10543
1.2569
0.144468
-1.15794
-2.506
-3.74506
-4.39713
-4.23531
-3.44651
-2.549
-1.83864
-1.23639
-0.68925
-0.233065
0.105701
0.327631
0.457252
0.522578
0.54685
0.547306
0.5353
0.51763
0.497984
0.478257
0.459355
0.441637
0.425177
0.409884
0.395593
0.382121
0.369298
0.356985
0.345065
0.333453
0.322093
0.310935
0.299945
0.289109
0.278404
0.267811
0.257324
0.246939
0.236642
0.226429
0.216297
0.20624
0.196248
0.18632
0.176452
0.166641
0.15688
0.147165
0.137494
0.127862
0.118265
0.108701
0.0991645
0.0896525
0.080162
0.0706901
0.0612341
0.0517913
0.0423606
0.0329395
0.0235274
0.0141203
0.00470903
1.02152
1.01146
1.01193
1.02754
1.04279
1.05795
1.0807
1.11393
1.15936
1.22033
1.30124
1.40702
1.54291
1.71348
1.9289
2.18965
2.49309
2.83026
3.17924
3.49946
3.72692
3.77386
3.53775
2.92263
1.8774
0.412376
-1.42487
-3.51195
-5.52726
-6.63733
-6.11543
-4.38543
-2.89924
-1.99594
-1.26962
-0.564626
0.00149295
0.391459
0.606434
0.700226
0.721636
0.70403
0.669187
0.629321
0.590671
0.555661
0.524771
0.497689
0.473882
0.452782
0.433865
0.416674
0.400817
0.385988
0.371956
0.358538
0.345606
0.333068
0.320852
0.308913
0.297217
0.285731
0.274432
0.263307
0.252341
0.241519
0.23083
0.220268
0.209819
0.199472
0.189221
0.179062
0.168987
0.158987
0.149055
0.139185
0.129371
0.119608
0.10989
0.100213
0.0905726
0.0809628
0.0713791
0.0618173
0.0522745
0.0427489
0.0332373
0.0237378
0.0142454
0.00475036
0.979769
0.968923
0.967843
0.981124
0.99332
1.00479
1.02337
1.05224
1.09359
1.15155
1.23174
1.34104
1.48771
1.68172
1.92638
2.24639
2.63646
3.09715
3.61218
4.13932
4.59863
4.86418
4.77186
4.14737
2.89495
1.02254
-1.48157
-4.75295
-8.34644
-10.0674
-8.98276
-5.2261
-2.54186
-1.87619
-1.22335
-0.285263
0.401984
0.830471
0.998948
1.01543
0.960433
0.87989
0.797252
0.723135
0.66064
0.609329
0.567333
0.532585
0.503328
0.478196
0.456167
0.436474
0.418536
0.401929
0.386341
0.371545
0.357381
0.343726
0.330498
0.317642
0.305112
0.292866
0.28088
0.269131
0.257597
0.24626
0.235109
0.224127
0.213296
0.202603
0.192039
0.181596
0.171264
0.16103
0.150887
0.140824
0.130834
0.120909
0.111044
0.101231
0.0914647
0.0817385
0.0720459
0.062382
0.052743
0.0431262
0.0335271
0.0239425
0.0143669
0.00479044
0.93642
0.924536
0.921318
0.931332
0.939107
0.944991
0.956859
0.97802
1.01098
1.06044
1.13308
1.23756
1.38505
1.58978
1.86942
2.23311
2.70921
3.30908
4.0309
4.84202
5.65402
6.2945
6.50559
5.96246
4.50822
2.20268
-1.04557
-6.40667
-14.6643
-21.7907
-18.2974
-9.21954
-7.7518
-4.28884
-1.86564
0.224136
1.11685
1.53597
1.5509
1.40469
1.22499
1.05769
0.917595
0.806286
0.720134
0.653954
0.602601
0.561836
0.528518
0.500451
0.476141
0.454555
0.434975
0.416898
0.399971
0.383949
0.368655
0.35396
0.339778
0.326049
0.312717
0.299741
0.287092
0.27474
0.262656
0.250822
0.239221
0.227832
0.216633
0.205608
0.194744
0.184029
0.173448
0.16299
0.152643
0.142395
0.132236
0.122157
0.112149
0.102206
0.0923191
0.0824809
0.0726841
0.0629229
0.0531924
0.0434885
0.0338052
0.0241386
0.0144831
0.00482872
0.892561
0.879395
0.873484
0.879314
0.881301
0.879661
0.882139
0.891949
0.911591
0.945987
1.00242
1.09082
1.22471
1.42226
1.70697
2.10669
2.65865
3.39739
4.35618
5.53561
6.86405
8.12452
8.92553
8.62121
6.95678
4.05759
-2.82345
-18.4033
-44.9594
-59.275
-65.8721
-56.3707
-43.7231
-28.5124
-14.8551
-2.28296
1.27734
2.44276
2.25758
1.84497
1.48395
1.21125
1.0104
0.864935
0.760162
0.683979
0.627249
0.583484
0.548306
0.518878
0.493387
0.470666
0.44996
0.430764
0.412737
0.395651
0.379341
0.363689
0.348617
0.334061
0.319965
0.306292
0.293008
0.280076
0.267467
0.255158
0.243128
0.231348
0.219797
0.208455
0.197306
0.186331
0.175515
0.164844
0.154304
0.143881
0.133562
0.123336
0.113194
0.103127
0.0931257
0.0831816
0.0732866
0.0634337
0.053617
0.0438305
0.0340674
0.0243234
0.0145925
0.00486478
0.849569
0.834917
0.825835
0.826669
0.821629
0.810654
0.801157
0.795958
0.797145
0.809289
0.839531
0.898134
0.999932
1.16623
1.42715
1.8243
2.41465
3.26836
4.45351
6.06518
8.11242
10.3643
12.2961
12.4589
10.4163
5.218
-11.8006
-57.9869
-90.6246
-111.091
-118.426
-110.873
-87.656
-63.9433
-37.7763
-13.3095
-1.87399
3.38684
2.99849
2.23385
1.65942
1.29026
1.04598
0.882268
0.771481
0.694539
0.638853
0.596408
0.56223
0.533314
0.507861
0.484798
0.463481
0.443503
0.424602
0.406606
0.389386
0.372855
0.35695
0.341612
0.326794
0.31246
0.298571
0.285087
0.27198
0.259222
0.246785
0.234637
0.222754
0.211114
0.199695
0.188476
0.17744
0.16657
0.15585
0.145264
0.134795
0.124433
0.114166
0.103983
0.093875
0.0838323
0.0738458
0.0639077
0.0540106
0.0441473
0.0343102
0.0244944
0.0146939
0.0048983
0.809076
0.792799
0.780199
0.775425
0.762388
0.740608
0.716934
0.693464
0.671387
0.654215
0.64791
0.661611
0.70947
0.813426
1.00727
1.34254
1.89678
2.78217
4.15002
6.1303
9.09533
12.8453
17.023
17.5333
11.8119
-5.96996
-53.0748
-85.5024
-109.187
-128.787
-129.737
-108.879
-77.4272
-58.2302
-46.6336
-30.176
-10.7161
2.22697
3.49828
2.42833
1.6884
1.25571
0.999881
0.84581
0.748548
0.683641
0.637092
0.60096
0.570822
0.544254
0.519952
0.497226
0.475715
0.455216
0.435611
0.416814
0.398764
0.381415
0.364723
0.348644
0.333145
0.318187
0.303726
0.289724
0.276148
0.262969
0.25015
0.23766
0.22547
0.213555
0.201887
0.190443
0.179203
0.168151
0.157265
0.146527
0.135921
0.125434
0.115052
0.104764
0.0945581
0.084425
0.0743548
0.0643388
0.0543683
0.0444351
0.0345308
0.0246501
0.0147865
0.00492895
0.772903
0.754947
0.738665
0.727969
0.70639
0.672894
0.633561
0.589447
0.540345
0.487924
0.435763
0.390012
0.361262
0.367656
0.440076
0.630962
1.02885
1.78116
3.13067
5.46321
9.1379
14.925
22.8187
21.6177
-1.73105
-45.9082
-77.7779
-95.9821
-95.1657
-95.0846
-99.6487
-79.051
-35.829
-20.3668
-38.7575
-46.6181
-25.9962
-3.87502
2.18309
1.87398
1.32807
1.00564
0.841199
0.748142
0.691704
0.653838
0.624715
0.599453
0.575836
0.552952
0.530515
0.50851
0.48701
0.466104
0.445858
0.426306
0.407464
0.389332
0.371888
0.355107
0.338964
0.323416
0.30842
0.293935
0.279927
0.266357
0.253186
0.240382
0.227913
0.215747
0.203853
0.192206
0.180784
0.169565
0.158529
0.147656
0.136927
0.126328
0.115843
0.10546
0.095167
0.084953
0.074808
0.0647224
0.0546865
0.0446911
0.0347271
0.0247888
0.014869
0.0049563
0.742959
0.723378
0.703483
0.686929
0.656816
0.611464
0.556035
0.490302
0.412243
0.320992
0.21659
0.100236
-0.0243697
-0.148534
-0.253946
-0.30382
-0.225846
0.120325
1.00406
2.86431
6.74516
12.3748
20.1791
5.14844
-39.1386
-69.8212
-88.9696
-82.3515
-73.5109
-72.3864
-73.6988
-55.5702
-23.7832
-17.2498
-60.029
-71.7476
-42.4336
-10.3368
0.422164
0.924523
0.737637
0.635751
0.610163
0.611775
0.615694
0.615132
0.60849
0.596409
0.580244
0.561329
0.540769
0.519397
0.497806
0.476407
0.45546
0.435122
0.415482
0.396574
0.3784
0.360949
0.344194
0.328093
0.312599
0.297671
0.283268
0.269344
0.255858
0.242773
0.230054
0.217664
0.205569
0.193743
0.18216
0.170797
0.159629
0.148637
0.1378
0.127103
0.116529
0.106064
0.0956953
0.0854111
0.0752012
0.0650551
0.0549622
0.0449127
0.034897
0.0249089
0.0149404
0.00497988
0.721123
0.700086
0.676911
0.654996
0.616996
0.560568
0.489908
0.403397
0.296987
0.166868
0.00876507
-0.182557
-0.4131
-0.689023
-1.01506
-1.3906
-1.8007
-2.1982
-2.4632
-2.50334
-1.26166
-7.84094
-19.0203
-61.3011
-71.1384
-75.5191
-71.8936
-57.8394
-55.2642
-59.559
-59.7034
-48.8359
-35.6023
-59.751
-95.9923
-106.145
-59.6068
-14.7257
-1.73711
-0.523837
-0.0796633
0.143663
0.338851
0.467449
0.543025
0.582517
0.597966
0.597768
0.587692
0.571598
0.552032
0.530651
0.508527
0.486342
0.464513
0.443286
0.422795
0.403096
0.384203
0.366107
0.348775
0.332158
0.316211
0.300884
0.286128
0.271891
0.258128
0.2448
0.231864
0.21928
0.207013
0.195035
0.183316
0.171829
0.16055
0.149458
0.138531
0.127752
0.117103
0.106569
0.0961373
0.0857946
0.0755303
0.0653331
0.0551922
0.0450972
0.0350382
0.0250085
0.0149995
0.00499933
0.709111
0.686907
0.661049
0.634705
0.59013
0.524379
0.440762
0.336353
0.205162
0.040495
-0.166302
-0.427232
-0.759002
-1.1852
-1.7398
-2.47299
-3.46185
-4.83653
-6.83268
-10.1684
-14.5393
-46.2771
-91.9058
-113.067
-103.022
-76.9848
-56.917
-47.1546
-49.0852
-51.3917
-50.6294
-46.5653
-49.266
-95.2771
-128.751
-127.211
-64.5417
-17.3152
-5.06941
-2.15237
-1.01848
-0.286174
0.136523
0.376123
0.507598
0.574976
0.603863
0.609617
0.601639
0.585708
0.565378
0.542843
0.519452
0.496021
0.473033
0.450762
0.429341
0.408824
0.38922
0.370507
0.352637
0.335554
0.319205
0.303528
0.288465
0.27396
0.259964
0.246431
0.233315
0.220572
0.208166
0.196064
0.184235
0.172649
0.161281
0.150108
0.13911
0.128266
0.117558
0.10697
0.096488
0.086099
0.0757912
0.0655531
0.0553735
0.0452422
0.0351489
0.0250864
0.0150456
0.00501445
0.708349
0.68537
0.657658
0.628205
0.578971
0.506551
0.413574
0.296104
0.146633
-0.0438269
-0.28745
-0.601769
-1.01244
-1.55797
-2.29809
-3.32923
-4.81489
-7.05053
-10.5693
-16.5452
-26.7694
-69.4407
-139.219
-164.919
-147.872
-94.3448
-57.525
-47.6778
-48.6534
-49.1011
-47.3397
-49.4282
-60.149
-96.7827
-125.717
-109.295
-56.2316
-19.8066
-7.08638
-3.24034
-1.36037
-0.394173
0.120367
0.395382
0.538586
0.607596
0.63406
0.636058
0.624181
0.604681
0.581261
0.556128
0.53058
0.505366
0.48091
0.457427
0.435001
0.413652
0.393358
0.374066
0.355708
0.338218
0.321524
0.305554
0.290238
0.275517
0.261336
0.247642
0.234385
0.221521
0.209011
0.196817
0.184905
0.173245
0.161811
0.15058
0.139529
0.128638
0.117888
0.107261
0.096743
0.0863202
0.0759805
0.0657121
0.0555042
0.0453463
0.0352283
0.0251422
0.0150785
0.00502513
0.719853
0.696566
0.667995
0.637051
0.585534
0.509791
0.412079
0.287924
0.129
-0.0749077
-0.337828
-0.680167
-1.13214
-1.73967
-2.57483
-3.75514
-5.48645
-8.11258
-12.5225
-18.9629
-36.0424
-73.9432
-155.308
-211.114
-191.394
-111.186
-58.8457
-51.0749
-50.9687
-49.9174
-47.9318
-52.6486
-64.6797
-84.759
-87.9138
-68.1983
-33.1
-14.2844
-4.51099
-2.05951
-0.748316
-0.0319921
0.35218
0.551131
0.646845
0.68469
0.69
0.677307
0.655038
0.628071
0.599216
0.570076
0.541534
0.514061
0.48788
0.463063
0.439599
0.417438
0.396499
0.376689
0.357913
0.340085
0.323114
0.306914
0.291408
0.27653
0.262218
0.248412
0.23506
0.222114
0.209534
0.19728
0.185315
0.173609
0.162135
0.150868
0.139786
0.128866
0.11809
0.107439
0.0968991
0.0864555
0.076096
0.0658089
0.0555833
0.0454091
0.0352759
0.0251755
0.015098
0.00503133
0.744131
0.721039
0.6927
0.662041
0.610863
0.535512
0.438248
0.314614
0.156311
-0.0467899
-0.308503
-0.648766
-1.09673
-1.69597
-2.51333
-3.65198
-5.29223
-7.71132
-11.5879
-16.7185
-32.3486
-72.4002
-152.366
-213.881
-182.442
-103.946
-59.1759
-54.8818
-54.7457
-52.42
-50.4029
-54.9558
-63.8147
-63.1258
-52.073
-34.006
-10.8862
-4.08083
-0.955584
0.0193027
0.437359
0.657459
0.767838
0.810645
0.814009
0.795235
0.764754
0.728847
0.691179
0.653799
0.617786
0.583646
0.551567
0.52156
0.49354
0.467372
0.442912
0.420007
0.398507
0.378269
0.359169
0.341089
0.323922
0.307569
0.291945
0.276976
0.26259
0.248724
0.235323
0.222339
0.209728
0.197447
0.185461
0.173737
0.162249
0.150969
0.139875
0.128946
0.11816
0.107502
0.0969545
0.0865037
0.0761369
0.0658428
0.0556107
0.0454305
0.0352919
0.0251864
0.015104
0.00503305
0.78114
0.758738
0.731722
0.703124
0.654907
0.583656
0.492007
0.376061
0.228369
0.0401365
-0.200317
-0.509448
-0.91042
-1.43619
-2.13759
-3.06808
-4.33425
-6.0527
-8.42474
-10.7634
-19.5523
-58.4831
-130.078
-166.165
-130.661
-79.1119
-57.9696
-59.1346
-60.9443
-60.2504
-59.7646
-56.4014
-57.777
-45.7653
-20.1299
1.31698
6.61102
4.18768
2.96024
2.18728
1.70529
1.41985
1.23534
1.10345
1.00105
0.916786
0.844952
0.782455
0.727407
0.678502
0.634745
0.595342
0.559652
0.527148
0.497385
0.469997
0.444679
0.42117
0.39924
0.378702
0.359394
0.341171
0.323905
0.307488
0.291826
0.276834
0.262436
0.248566
0.235168
0.22219
0.209586
0.197315
0.18534
0.173628
0.162151
0.150882
0.139798
0.128877
0.1181
0.10745
0.0969091
0.0864647
0.0761034
0.0658142
0.0555865
0.0454107
0.0352763
0.0251749
0.0150966
0.00503033
0.83028
0.809017
0.784316
0.759396
0.71651
0.652691
0.571256
0.469298
0.340861
0.179417
-0.0231651
-0.277898
-0.598869
-0.999082
-1.50273
-2.1504
-2.95248
-3.89548
-5.08207
-5.52133
-11.6135
-44.5617
-99.0129
-99.5967
-79.8313
-53.372
-54.8422
-67.5711
-78.1202
-84.0175
-78.6956
-71.806
-54.5595
-17.3325
11.6816
18.6138
14.1072
8.61956
5.49591
3.71768
2.67413
2.03666
1.62969
1.35734
1.16556
1.024
0.915144
0.828536
0.757655
0.698273
0.647539
0.60347
0.564653
0.530048
0.498879
0.470562
0.444636
0.420736
0.398567
0.377896
0.358523
0.340282
0.32303
0.306647
0.291032
0.276092
0.261749
0.247934
0.23459
0.221664
0.20911
0.196886
0.184954
0.173283
0.161843
0.150608
0.139554
0.128661
0.11791
0.107283
0.0967639
0.0863392
0.075996
0.0657234
0.0555111
0.0453498
0.0352293
0.0251413
0.0150762
0.00502331
0.890441
0.870688
0.849117
0.829191
0.793551
0.739818
0.672201
0.589043
0.486272
0.360081
0.206945
0.0234016
-0.196315
-0.460272
-0.764455
-1.10383
-1.45226
-1.70907
-1.925
-0.809574
-3.74574
-27.7441
-70.7832
-65.0829
-47.2601
-22.0968
-55.7329
-92.7183
-115.112
-148.996
-127.268
-106.68
-55.6239
-3.23308
23.2543
20.5785
14.2425
9.38049
6.32556
4.38552
3.16874
2.38707
1.87131
1.52119
1.27494
1.0961
0.962081
0.858586
0.776418
0.709517
0.653799
0.606455
0.565508
0.529542
0.497536
0.468732
0.442551
0.41855
0.396383
0.375778
0.35651
0.338392
0.321275
0.305032
0.289554
0.274746
0.260526
0.246829
0.233593
0.220767
0.208304
0.196162
0.184307
0.172706
0.161328
0.150149
0.139146
0.1283
0.117592
0.107004
0.0965207
0.0861288
0.0758159
0.0655714
0.0553854
0.0452488
0.0351519
0.0250864
0.0150433
0.00501215
0.960093
0.942113
0.92425
0.910251
0.883181
0.8413
0.789861
0.728464
0.655206
0.569548
0.470459
0.358352
0.237102
0.113371
0.00301564
-0.0652233
-0.0417241
0.166258
0.648708
1.59325
3.81781
-11.4084
-43.7298
-47.4082
-25.4638
-4.76818
-52.9439
-123.757
-170.096
-228.789
-217.937
-135.691
-63.7708
-8.31001
16.5599
15.2623
11.4061
8.13121
5.80811
4.25993
3.18744
2.44845
1.93407
1.57346
1.31257
1.12116
0.977484
0.866958
0.779873
0.709651
0.651782
0.603114
0.561416
0.525095
0.492996
0.464267
0.438267
0.41451
0.392622
0.372308
0.353328
0.33549
0.318639
0.302645
0.287398
0.272802
0.258779
0.24526
0.232187
0.219506
0.207175
0.195153
0.183405
0.171901
0.160611
0.149512
0.138581
0.1278
0.117151
0.106616
0.0961827
0.0858362
0.0755656
0.0653605
0.0552115
0.0451096
0.0350455
0.0250113
0.0149984
0.00499706
1.0374
1.02133
1.00748
0.999938
0.982127
0.952831
0.918739
0.880473
0.837408
0.790538
0.743305
0.700635