/*--------------------------------*- C++ -*----------------------------------*\
| =========                 |                                                 |
| \\      /  F ield         | OpenFOAM: The Open Source CFD Toolbox           |
|  \\    /   O peration     | Version:  v1806                                 |
|   \\  /    A nd           | Web:      www.OpenFOAM.com                      |
|    \\/     M anipulation  |                                                 |
\*---------------------------------------------------------------------------*/
FoamFile
{
    version     2.0;
    format      ascii;
    class       surfaceScalarField;
    location    "0.06";
    object      phi;
}
// * * * * * * * * * * * * * * * * * * * * * * * * * * * * * * * * * * * * * //

dimensions      [0 3 -1 0 0 0 0];
oriented        oriented;


internalField   nonuniform List<scalar> 
10650
(
0.00285387
0.000479463
0.0023548
0.000499066
0.00202601
0.000328797
0.00184111
0.000184892
0.00174536
9.57561e-05
0.00169362
5.17372e-05
0.00166353
3.00932e-05
0.00164513
1.84007e-05
0.00163355
1.15798e-05
0.00162629
7.25577e-06
0.00162206
4.23108e-06
0.00162011
1.94584e-06
0.00161995
1.64777e-07
0.00162126
-1.31398e-06
0.00162378
-2.51501e-06
0.00162722
-3.44215e-06
0.00163135
-4.12661e-06
0.00163593
-4.58193e-06
0.00164071
-4.78235e-06
0.00164544
-4.73144e-06
0.00164987
-4.42596e-06
0.00165373
-3.86427e-06
0.0016568
-3.06204e-06
0.00165884
-2.04491e-06
0.00165969
-8.47987e-07
0.00165921
4.76529e-07
0.00165732
1.88777e-06
0.00165402
3.30559e-06
0.00164935
4.67334e-06
0.00164342
5.9298e-06
0.00163639
7.02258e-06
0.00162848
7.91282e-06
0.0016199
8.57518e-06
0.00161091
8.99599e-06
0.00160173
9.17823e-06
0.00159259
9.14075e-06
0.00158368
8.91051e-06
0.00157516
8.51753e-06
0.00156717
7.99452e-06
0.00155979
7.37811e-06
0.00155308
6.70398e-06
0.00154708
6.00167e-06
0.00154179
5.29372e-06
0.00153719
4.59874e-06
0.00153326
3.93366e-06
0.00152995
3.31133e-06
0.00152721
2.73854e-06
0.00152499
2.2172e-06
0.00152324
1.7473e-06
0.00152191
1.32939e-06
0.00152095
9.63179e-07
0.0015203
6.46478e-07
0.00151993
3.74726e-07
0.00151979
1.42194e-07
0.00151984
-5.12955e-08
0.00152005
-2.17053e-07
0.00152041
-3.51318e-07
0.00152086
-4.58415e-07
0.00152141
-5.41429e-07
0.00152201
-6.04274e-07
0.00152266
-6.51903e-07
0.00152335
-6.85741e-07
0.00152406
-7.07949e-07
0.00152477
-7.18481e-07
0.00152549
-7.19259e-07
0.00152621
-7.12578e-07
0.00152691
-6.99846e-07
0.00152759
-6.82923e-07
0.00152825
-6.6313e-07
0.00152889
-6.40104e-07
0.0015295
-6.13678e-07
0.00153009
-5.8504e-07
0.00153064
-5.5465e-07
0.00153117
-5.23214e-07
0.00153166
-4.91175e-07
0.00153212
-4.59037e-07
0.00153254
-4.26956e-07
0.00153294
-3.94838e-07
0.0015333
-3.62926e-07
0.00153363
-3.30946e-07
0.00153393
-2.98796e-07
0.0015342
-2.66631e-07
0.00153443
-2.34832e-07
0.00153464
-2.0353e-07
0.00153481
-1.72621e-07
0.00153495
-1.42145e-07
0.00153506
-1.11199e-07
0.00153515
-8.17969e-08
0.00153519
-4.7499e-08
-1.04862e-08
0.0034718
0.000341001
0.00347227
0.00049859
0.00339625
0.000404821
0.00331039
0.000270748
0.003238
0.000168149
0.00318481
0.000104927
0.00314714
6.77632e-05
0.00312055
4.49872e-05
0.00310188
3.02492e-05
0.003089
2.01421e-05
0.00308046
1.27741e-05
0.00307528
7.12583e-06
0.0030728
2.64532e-06
0.00307253
-1.04833e-06
0.00307398
-3.97018e-06
0.00307686
-6.31861e-06
0.00308083
-8.09904e-06
0.00308558
-9.33273e-06
0.00309079
-9.98845e-06
0.00309613
-1.00713e-05
0.00310128
-9.57394e-06
0.00310591
-8.49406e-06
0.00310971
-6.8644e-06
0.0031124
-4.7374e-06
0.00311374
-2.19004e-06
0.00311355
6.67899e-07
0.0031117
3.73738e-06
0.00310815
6.85332e-06
0.00310295
9.88199e-06
0.00309619
1.26904e-05
0.00308805
1.51561e-05
0.00307878
1.71854e-05
0.00306863
1.87198e-05
0.0030579
1.97296e-05
0.00304686
2.02167e-05
0.00303579
2.02137e-05
0.00302492
1.97758e-05
0.00301447
1.89727e-05
0.00300458
1.78789e-05
0.00299539
1.65705e-05
0.00298698
1.5121e-05
0.00297938
1.3596e-05
0.00297262
1.20519e-05
0.00296669
1.05319e-05
0.00296155
9.07113e-06
0.00295717
7.69448e-06
0.00295349
6.41902e-06
0.00295045
5.25326e-06
0.002948
4.20067e-06
0.00294607
3.26164e-06
0.00294459
2.4342e-06
0.00294353
1.71231e-06
0.00294281
1.08839e-06
0.0029424
5.53904e-07
0.00294225
1.00587e-07
0.00294231
-2.81843e-07
0.00294256
-5.97965e-07
0.00294295
-8.49592e-07
0.00294346
-1.05074e-06
0.00294407
-1.20757e-06
0.00294474
-1.32863e-06
0.00294547
-1.41541e-06
0.00294624
-1.47357e-06
0.00294703
-1.50785e-06
0.00294783
-1.52051e-06
0.00294863
-1.51547e-06
0.00294943
-1.49643e-06
0.00295021
-1.46624e-06
0.00295098
-1.42736e-06
0.00295172
-1.38064e-06
0.00295243
-1.32777e-06
0.00295311
-1.26889e-06
0.00295376
-1.20578e-06
0.00295438
-1.1401e-06
0.00295496
-1.07279e-06
0.00295551
-1.00432e-06
0.00295602
-9.35392e-07
0.00295649
-8.66043e-07
0.00295692
-7.96631e-07
0.00295732
-7.27005e-07
0.00295768
-6.57391e-07
0.002958
-5.88049e-07
0.00295828
-5.19157e-07
0.00295853
-4.50892e-07
0.00295874
-3.83257e-07
0.00295891
-3.16434e-07
0.00295905
-2.49117e-07
0.00295916
-1.84545e-07
0.00295922
-1.14394e-07
-3.99788e-08
0.00346702
0.00020731
0.00357784
0.000387779
0.00361354
0.000369115
0.00360096
0.000283333
0.00356916
0.00019995
0.00353585
0.000138232
0.00350753
9.60858e-05
0.00348522
6.72923e-05
0.00346841
4.70593e-05
0.00345625
3.23037e-05
0.00344792
2.11021e-05
0.00344275
1.22934e-05
0.00344023
5.17438e-06
0.00343987
-6.91616e-07
0.00344136
-5.46463e-06
0.00344436
-9.31219e-06
0.00344854
-1.22839e-05
0.00345359
-1.43799e-05
0.00345919
-1.55905e-05
0.00346499
-1.58745e-05
0.00347065
-1.52325e-05
0.00347582
-1.36593e-05
0.00348015
-1.1194e-05
0.00348332
-7.91161e-06
0.00348507
-3.93499e-06
0.00348517
5.6254e-07
0.00348349
5.41344e-06
0.00347998
1.03715e-05
0.00347465
1.52067e-05
0.00346764
1.9699e-05
0.00345915
2.36527e-05
0.00344942
2.69145e-05
0.00343875
2.93834e-05
0.00342747
3.10117e-05
0.00341588
3.18045e-05
0.00340428
3.1816e-05
0.00339292
3.11341e-05
0.00338202
2.98717e-05
0.00337175
2.81494e-05
0.00336223
2.60904e-05
0.00335354
2.38106e-05
0.00334572
2.14149e-05
0.00333879
1.89902e-05
0.00333271
1.66064e-05
0.00332747
1.43171e-05
0.003323
1.21605e-05
0.00331926
1.01625e-05
0.00331617
8.33582e-06
0.00331369
6.68788e-06
0.00331173
5.21779e-06
0.00331024
3.92067e-06
0.00330917
2.78743e-06
0.00330845
1.80644e-06
0.00330804
9.64991e-07
0.00330789
2.50751e-07
0.00330796
-3.50344e-07
0.0033082
-8.45502e-07
0.0033086
-1.24766e-06
0.00330912
-1.56848e-06
0.00330974
-1.8201e-06
0.00331042
-2.01319e-06
0.00331116
-2.15413e-06
0.00331193
-2.24976e-06
0.00331273
-2.30628e-06
0.00331354
-2.33039e-06
0.00331436
-2.32785e-06
0.00331516
-2.30275e-06
0.00331596
-2.25944e-06
0.00331673
-2.20078e-06
0.00331748
-2.12998e-06
0.0033182
-2.04927e-06
0.00331889
-1.96029e-06
0.00331955
-1.8652e-06
0.00332017
-1.76518e-06
0.00332076
-1.66205e-06
0.00332132
-1.55707e-06
0.00332183
-1.45095e-06
0.00332231
-1.34391e-06
0.00332275
-1.23652e-06
0.00332315
-1.1291e-06
0.00332351
-1.02184e-06
0.00332384
-9.14943e-07
0.00332413
-8.08739e-07
0.00332438
-7.03428e-07
0.0033246
-5.98945e-07
0.00332478
-4.95484e-07
0.00332492
-3.92174e-07
0.00332503
-2.9118e-07
0.0033251
-1.88318e-07
-7.90999e-08
0.00340745
0.000133192
0.00350422
0.000291007
0.0035619
0.000311435
0.00358072
0.000264516
0.00357637
0.000204304
0.00356253
0.000152067
0.00354682
0.000111794
0.00353249
8.1623e-05
0.00352072
5.88341e-05
0.00351178
4.12442e-05
0.00350557
2.73061e-05
0.00350188
1.59902e-05
0.00350042
6.62884e-06
0.00350098
-1.24549e-06
0.00350327
-7.75702e-06
0.00350702
-1.30599e-05
0.00351197
-1.72384e-05
0.00351785
-2.02556e-05
0.0035243
-2.20403e-05
0.00353099
-2.25712e-05
0.00353755
-2.17939e-05
0.0035436
-1.9703e-05
0.00354874
-1.63368e-05
0.00355262
-1.17953e-05
0.00355493
-6.24156e-06
0.0035554
9.39492e-08
0.00355388
6.93532e-06
0.00355029
1.39577e-05
0.00354468
2.08173e-05
0.00353719
2.71885e-05
0.00352805
3.27871e-05
0.00351758
3.73876e-05
0.00350612
4.08433e-05
0.00349404
4.30918e-05
0.0034817
4.4149e-05
0.00346942
4.40981e-05
0.00345748
4.30733e-05
0.00344611
4.12394e-05
0.00343548
3.87741e-05
0.00342572
3.58552e-05
0.00341688
3.2649e-05
0.003409
2.92999e-05
0.00340206
2.59278e-05
0.00339604
2.2628e-05
0.00339088
1.94717e-05
0.00338653
1.6509e-05
0.00338292
1.3772e-05
0.00337998
1.1278e-05
0.00337764
9.03273e-06
0.00337582
7.03422e-06
0.00337447
5.27322e-06
0.00337352
3.73614e-06
0.00337292
2.40751e-06
0.00337261
1.27005e-06
0.00337256
3.05838e-07
0.00337271
-5.04393e-07
0.00337304
-1.17083e-06
0.00337351
-1.71455e-06
0.00337408
-2.14635e-06
0.00337475
-2.48384e-06
0.00337548
-2.74303e-06
0.00337626
-2.93078e-06
0.00337706
-3.05826e-06
0.00337789
-3.13357e-06
0.00337872
-3.16506e-06
0.00337956
-3.16011e-06
0.00338038
-3.12544e-06
0.00338119
-3.06628e-06
0.00338197
-2.98574e-06
0.00338273
-2.88882e-06
0.00338346
-2.77874e-06
0.00338416
-2.65795e-06
0.00338482
-2.52914e-06
0.00338545
-2.3939e-06
0.00338604
-2.25455e-06
0.0033866
-2.11227e-06
0.00338711
-1.96819e-06
0.00338759
-1.82308e-06
0.00338803
-1.67758e-06
0.00338844
-1.53211e-06
0.0033888
-1.38698e-06
0.00338913
-1.2426e-06
0.00338942
-1.09914e-06
0.00338967
-9.56727e-07
0.00338989
-8.15333e-07
0.00339007
-6.75352e-07
0.00339021
-5.36361e-07
0.00339032
-3.99395e-07
0.0033904
-2.62655e-07
-1.17304e-07
0.00337317
9.33592e-05
0.0034403
0.000223877
0.00349296
0.000258772
0.00352157
0.000235908
0.00353161
0.000194259
0.00353096
0.000152716
0.00352546
0.000117297
0.00351853
8.85521e-05
0.003512
6.53676e-05
0.00350676
4.64816e-05
0.00350321
3.08524e-05
0.00350149
1.77104e-05
0.00350159
6.52975e-06
0.00350346
-3.11716e-06
0.00350689
-1.11885e-05
0.00351181
-1.79763e-05
0.00351794
-2.3365e-05
0.00352499
-2.73143e-05
0.00353272
-2.97634e-05
0.00354071
-3.05598e-05
0.00354857
-2.96615e-05
0.00355589
-2.70149e-05
0.0035622
-2.26522e-05
0.00356709
-1.66885e-05
0.00357018
-9.32816e-06
0.00357115
-8.79579e-07
0.00356981
8.27454e-06
0.00356608
1.76954e-05
0.00355999
2.69011e-05
0.00355175
3.5435e-05
0.00354163
4.28988e-05
0.00353004
4.89815e-05
0.0035174
5.34881e-05
0.00350414
5.63433e-05
0.00349071
5.75848e-05
0.00347746
5.73421e-05
0.00346472
5.58131e-05
0.00345273
5.3234e-05
0.00344165
4.9852e-05
0.00343159
4.59129e-05
0.00342261
4.16378e-05
0.00341469
3.72166e-05
0.00340781
3.28036e-05
0.00340192
2.85171e-05
0.00339695
2.44437e-05
0.00339282
2.06426e-05
0.00338944
1.71491e-05
0.00338674
1.39807e-05
0.00338463
1.11407e-05
0.00338304
8.62141e-06
0.00338191
6.40847e-06
0.00338116
4.48302e-06
0.00338075
2.82294e-06
0.00338061
1.40612e-06
0.00338071
2.08766e-07
0.003381
-7.9773e-07
0.00338145
-1.61635e-06
0.00338202
-2.28435e-06
0.00338269
-2.81522e-06
0.00338343
-3.2291e-06
0.00338423
-3.54295e-06
0.00338507
-3.7669e-06
0.00338593
-3.91707e-06
0.0033868
-4.00334e-06
0.00338767
-4.03587e-06
0.00338853
-4.02328e-06
0.00338938
-3.9731e-06
0.0033902
-3.89257e-06
0.003391
-3.78706e-06
0.00339178
-3.66109e-06
0.00339252
-3.51902e-06
0.00339322
-3.36383e-06
0.00339389
-3.19933e-06
0.00339452
-3.02734e-06
0.00339512
-2.85023e-06
0.00339568
-2.66951e-06
0.0033962
-2.48687e-06
0.00339668
-2.30305e-06
0.00339712
-2.11888e-06
0.00339752
-1.93488e-06
0.00339788
-1.75156e-06
0.00339821
-1.5693e-06
0.0033985
-1.38829e-06
0.00339875
-1.20873e-06
0.00339897
-1.0308e-06
0.00339915
-8.54638e-07
0.00339929
-6.79898e-07
0.0033994
-5.07178e-07
0.00339947
-3.35628e-07
-1.52909e-07
0.00335633
7.03654e-05
0.0034021
0.000178106
0.00344467
0.000216201
0.00347369
0.000206888
0.00348958
0.000178372
0.00349621
0.00014608
0.00349744
0.000116074
0.00349604
8.99463e-05
0.00349383
6.75801e-05
0.0034919
4.84111e-05
0.0034909
3.18536e-05
0.00349119
1.74183e-05
0.00349297
4.74984e-06
0.00349625
-6.40143e-06
0.00350111
-1.60402e-05
0.00350739
-2.42606e-05
0.00351495
-3.09268e-05
0.00352356
-3.59229e-05
0.00353291
-3.9111e-05
0.00354261
-4.02612e-05
0.00355222
-3.92712e-05
0.00356124
-3.60395e-05
0.00356915
-3.05596e-05
0.00357542
-2.29618e-05
0.00357959
-1.34935e-05
0.00358126
-2.54772e-06
0.00358017
9.36051e-06
0.00357621
2.16515e-05
0.00356946
3.36544e-05
0.00356015
4.47453e-05
0.00354867
5.43779e-05
0.00353552
6.21342e-05
0.00352124
6.77648e-05
0.00350639
7.11901e-05
0.00349149
7.24881e-05
0.00347697
7.18601e-05
0.00346319
6.95943e-05
0.0034504
6.60224e-05
0.00343877
6.14856e-05
0.00342838
5.63089e-05
0.00341924
5.07769e-05
0.00341132
4.51306e-05
0.00340457
3.95573e-05
0.00339889
3.41976e-05
0.00339418
2.91486e-05
0.00339035
2.44733e-05
0.00338729
2.02065e-05
0.00338491
1.63604e-05
0.00338312
1.29314e-05
0.00338184
9.9047e-06
0.00338099
7.2582e-06
0.00338051
4.9656e-06
0.00338033
2.99719e-06
0.00338042
1.32337e-06
0.00338071
-8.70282e-08
0.00338117
-1.25791e-06
0.00338178
-2.22189e-06
0.00338248
-2.98825e-06
0.00338327
-3.60284e-06
0.00338412
-4.07553e-06
0.003385
-4.42913e-06
0.00338591
-4.67868e-06
0.00338684
-4.84036e-06
0.00338776
-4.92747e-06
0.00338868
-4.95187e-06
0.00338958
-4.92364e-06
0.00339046
-4.8516e-06
0.00339131
-4.7444e-06
0.00339213
-4.60863e-06
0.00339292
-4.44924e-06
0.00339367
-4.27161e-06
0.00339439
-4.07961e-06
0.00339506
-3.87677e-06
0.0033957
-3.66584e-06
0.0033963
-3.44929e-06
0.00339686
-3.22898e-06
0.00339738
-3.00658e-06
0.00339786
-2.78314e-06
0.0033983
-2.55981e-06
0.0033987
-2.33711e-06
0.00339907
-2.11539e-06
0.00339939
-1.89504e-06
0.00339968
-1.67635e-06
0.00339993
-1.45964e-06
0.00340015
-1.24509e-06
0.00340032
-1.03269e-06
0.00340047
-8.21916e-07
0.00340057
-6.13412e-07
0.00340064
-4.06721e-07
-1.8612e-07
0.00334774
5.5958e-05
0.00337978
0.000146066
0.00341307
0.00018291
0.00343905
0.000180906
0.00345623
0.000161191
0.00346623
0.000136083
0.00347135
0.000110952
0.00347363
8.76685e-05
0.00347458
6.663e-05
0.00347527
4.77226e-05
0.00347642
3.07039e-05
0.00347851
1.53279e-05
0.00348186
1.40486e-06
0.00348665
-1.11994e-05
0.00349296
-2.23483e-05
0.0035008
-3.20976e-05
0.00351004
-4.01689e-05
0.00352049
-4.63747e-05
0.00353185
-5.04707e-05
0.00354371
-5.21198e-05
0.00355556
-5.11256e-05
0.00356681
-4.72883e-05
0.00357683
-4.05766e-05
0.00358495
-3.10867e-05
0.00359058
-1.91198e-05
0.0035932
-5.1624e-06
0.00359246
1.00953e-05
0.00358821
2.58986e-05
0.00358055
4.13216e-05
0.00356978
5.55074e-05
0.00355645
6.77162e-05
0.00354119
7.73917e-05
0.00352473
8.42222e-05
0.00350778
8.81405e-05
0.00349097
8.92958e-05
0.00347483
8.79997e-05
0.00345976
8.46696e-05
0.00344601
7.97687e-05
0.00343374
7.37582e-05
0.00342299
6.70611e-05
0.00341373
6.00359e-05
0.00340588
5.29772e-05
0.00339934
4.61037e-05
0.00339396
3.9572e-05
0.00338962
3.3485e-05
0.0033862
2.79017e-05
0.00338355
2.28482e-05
0.00338159
1.83268e-05
0.0033802
1.43226e-05
0.00337929
1.08099e-05
0.00337879
7.7559e-06
0.00337863
5.12443e-06
0.00337875
2.87821e-06
0.0033791
9.77913e-07
0.00337964
-6.23259e-07
0.00338031
-1.93144e-06
0.00338109
-3.00356e-06
0.00338196
-3.8548e-06
0.00338289
-4.53163e-06
0.00338385
-5.04237e-06
0.00338484
-5.41935e-06
0.00338584
-5.6784e-06
0.00338684
-5.8386e-06
0.00338783
-5.91435e-06
0.0033888
-5.92004e-06
0.00338974
-5.86775e-06
0.00339066
-5.766e-06
0.00339154
-5.62581e-06
0.00339238
-5.45397e-06
0.00339319
-5.25661e-06
0.00339396
-5.03925e-06
0.00339468
-4.80658e-06
0.00339537
-4.5624e-06
0.00339601
-4.31012e-06
0.00339662
-4.05224e-06
0.00339718
-3.79078e-06
0.0033977
-3.52735e-06
0.00339818
-3.26339e-06
0.00339862
-2.99997e-06
0.00339902
-2.73776e-06
0.00339938
-2.47725e-06
0.00339971
-2.21878e-06
0.00339999
-1.96268e-06
0.00340024
-1.70905e-06
0.00340045
-1.45788e-06
0.00340063
-1.20916e-06
0.00340077
-9.62352e-07
0.00340087
-7.18021e-07
0.00340094
-4.75937e-07
-2.17357e-07
0.00334293
4.63623e-05
0.00336599
0.000123009
0.00339181
0.000157082
0.00341385
0.000158868
0.00343015
0.000144897
0.00344115
0.000125079
0.00344817
0.00010393
0.0034526
8.32374e-05
0.00345562
6.3606e-05
0.00345817
4.51734e-05
0.00346096
2.79134e-05
0.00346453
1.17606e-05
0.00346928
-3.34062e-06
0.00347543
-1.7355e-05
0.00348324
-3.01593e-05
0.0034927
-4.15571e-05
0.00350384
-5.13075e-05
0.00351645
-5.89817e-05
0.00353022
-6.42471e-05
0.00354475
-6.66465e-05
0.00355942
-6.57967e-05
0.00357355
-6.1413e-05
0.00358632
-5.33455e-05
0.0035969
-4.16686e-05
0.00360449
-2.67101e-05
0.0036084
-9.07546e-06
0.00360814
1.03608e-05
0.0036035
3.05334e-05
0.0035946
5.022e-05
0.00358187
6.82368e-05
0.00356602
8.35653e-05
0.00354795
9.54637e-05
0.00352862
0.000103558
0.00350894
0.000107821
0.00348971
0.000108525
0.00347155
0.000106151
0.00345492
0.000101302
0.00344007
9.46194e-05
0.00342711
8.67185e-05
0.00341603
7.81427e-05
0.00340673
6.93373e-05
0.00339906
6.06465e-05
0.00339285
5.23164e-05
0.00338791
4.45104e-05
0.00338407
3.73249e-05
0.00338116
3.08058e-05
0.00337905
2.49626e-05
0.0033776
1.97799e-05
0.00337669
1.52255e-05
0.00337625
1.12586e-05
0.00337617
7.83354e-06
0.00337639
4.90102e-06
0.00337686
2.41297e-06
0.00337751
3.2244e-07
0.00337833
-1.4371e-06
0.00337924
-2.84328e-06
0.00338024
-4.0016e-06
0.00338129
-4.90563e-06
0.00338237
-5.61689e-06
0.00338348
-6.14775e-06
0.00338459
-6.52817e-06
0.00338569
-6.7783e-06
0.00338677
-6.92129e-06
0.00338783
-6.97255e-06
0.00338886
-6.94787e-06
0.00338985
-6.86001e-06
0.0033908
-6.72048e-06
0.00339172
-6.53927e-06
0.00339259
-6.32463e-06
0.00339341
-6.0836e-06
0.0033942
-5.82201e-06
0.00339493
-5.5449e-06
0.00339563
-5.25629e-06
0.00339628
-4.95982e-06
0.00339688
-4.65827e-06
0.00339745
-4.35397e-06
0.00339797
-4.04844e-06
0.00339845
-3.74321e-06
0.00339889
-3.43913e-06
0.00339929
-3.13693e-06
0.00339965
-2.83721e-06
0.00339997
-2.54037e-06
0.00340025
-2.24664e-06
0.0034005
-1.95597e-06
0.00340071
-1.66826e-06
0.00340088
-1.38342e-06
0.00340102
-1.10088e-06
0.00340113
-8.20934e-07
0.00340119
-5.43481e-07
-2.47013e-07
0.00333991
3.97886e-05
0.00335682
0.0001061
0.00337681
0.00013709
0.00339495
0.000140724
0.00340939
0.000130458
0.00342005
0.00011442
0.00342762
9.6354e-05
0.00343304
7.78205e-05
0.0034372
5.94469e-05
0.00344089
4.14828e-05
0.00344478
2.40259e-05
0.00344941
7.12567e-06
0.00345524
-9.1664e-06
0.00346264
-2.47611e-05
0.00347183
-3.93481e-05
0.00348301
-5.27309e-05
0.00349617
-6.44682e-05
0.00351123
-7.40462e-05
0.00352788
-8.08983e-05
0.00354565
-8.44119e-05
0.00356386
-8.40072e-05
0.00358164
-7.91966e-05
0.003598
-6.9699e-05
0.00361183
-5.55004e-05
0.00362206
-3.69378e-05
0.00362773
-1.47477e-05
0.00362815
9.93564e-06
0.00362301
3.56766e-05
0.00361243
6.07959e-05
0.00359703
8.36446e-05
0.00357779
0.000102806
0.00355595
0.000117298
0.00353283
0.000126676
0.00350964
0.000131015
0.00348737
0.000130794
0.00346677
0.00012675
0.00344832
0.000119751
0.00343226
0.000110684
0.00341862
0.000100357
0.0034073
8.94618e-05
0.0033981
7.85352e-05
0.00339078
6.79674e-05
0.00338508
5.80172e-05
0.00338075
4.88386e-05
0.00337757
4.05073e-05
0.00337534
3.30415e-05
0.00337388
2.64224e-05
0.00337305
2.06079e-05
0.00337273
1.55441e-05
0.00337282
1.11693e-05
0.00337323
7.4198e-06
0.0033739
4.23358e-06
0.00337476
1.5503e-06
0.00337578
-6.90958e-07
0.00337689
-2.54985e-06
0.00337809
-4.0399e-06
0.00337931
-5.22711e-06
0.00338057
-6.16477e-06
0.00338184
-6.88251e-06
0.00338309
-7.40541e-06
0.00338433
-7.76441e-06
0.00338554
-7.98874e-06
0.00338672
-8.096e-06
0.00338785
-8.10723e-06
0.00338894
-8.03926e-06
0.00338999
-7.90414e-06
0.00339098
-7.7168e-06
0.00339193
-7.48641e-06
0.00339283
-7.22186e-06
0.00339367
-6.93094e-06
0.00339447
-6.62016e-06
0.00339522
-6.29448e-06
0.00339592
-5.95831e-06
0.00339658
-5.61506e-06
0.00339719
-5.26772e-06
0.00339775
-4.91856e-06
0.00339827
-4.56939e-06
0.00339875
-4.22168e-06
0.00339919
-3.87619e-06
0.00339959
-3.53373e-06
0.00339995
-3.19467e-06
0.00340026
-2.85927e-06
0.00340054
-2.52768e-06
0.00340079
-2.19992e-06
0.003401
-1.87576e-06
0.00340117
-1.555e-06
0.0034013
-1.23697e-06
0.0034014
-9.21775e-07
0.00340147
-6.09347e-07
-2.75384e-07
0.0033378
3.53266e-05
0.00335025
9.3648e-05
0.00336563
0.000121703
0.00338024
0.000126122
0.00339245
0.000118242
0.003402
0.000104875
0.00340923
8.91219e-05
0.00341476
7.22852e-05
0.00341928
5.49276e-05
0.00342345
3.73171e-05
0.00342787
1.95989e-05
0.00343312
1.87644e-06
0.0034397
-1.57449e-05
0.00344801
-3.30741e-05
0.00345848
-4.98113e-05
0.00347132
-6.55685e-05
0.00348665
-7.9803e-05
0.00350445
-9.18444e-05
0.00352446
-0.000100905
0.00354615
-0.000106102
0.00356874
-0.000106605
0.0035912
-0.000101653
0.00361222
-9.0724e-05
0.00363037
-7.36497e-05
0.00364417
-5.07372e-05
0.00365228
-2.28548e-05
0.00365369
8.52195e-06
0.00364789
4.14822e-05
0.00363503
7.36566e-05
0.00361595
0.000102722
0.00359209
0.00012667
0.00356521
0.000144176
0.00353712
0.00015476
0.00350943
0.000158705
0.00348339
0.000156834
0.00345987
0.000150269
0.00343937
0.000140257
0.00342205
0.000128003
0.00340783
0.000114575
0.00339647
0.000100826
0.00338761
8.73919e-05
0.00338089
7.46877e-05
0.00337595
6.29619e-05
0.00337245
5.23343e-05
0.00337013
4.28352e-05
0.00336873
3.44382e-05
0.00336807
2.70832e-05
0.00336799
2.06911e-05
0.00336835
1.51769e-05
0.00336907
1.04557e-05
0.00337004
6.44423e-06
0.00337121
3.06388e-06
0.00337252
2.39357e-07
0.00337393
-2.1021e-06
0.00337538
-3.9995e-06
0.00337687
-5.525e-06
0.00337837
-6.72319e-06
0.00337985
-7.64862e-06
0.0033813
-8.33809e-06
0.00338272
-8.82592e-06
0.0033841
-9.14155e-06
0.00338543
-9.31488e-06
0.0033867
-9.36841e-06
0.00338792
-9.32308e-06
0.00338907
-9.19622e-06
0.00339017
-9.00273e-06
0.00339121
-8.75672e-06
0.00339219
-8.46791e-06
0.00339312
-8.14608e-06
0.00339398
-7.79903e-06
0.0033948
-7.43346e-06
0.00339556
-7.05465e-06
0.00339627
-6.66706e-06
0.00339693
-6.27422e-06
0.00339754
-5.87892e-06
0.0033981
-5.4833e-06
0.00339862
-5.08916e-06
0.0033991
-4.69786e-06
0.00339953
-4.31029e-06
0.00339993
-3.92704e-06
0.00340028
-3.54834e-06
0.0034006
-3.17434e-06
0.00340087
-2.80504e-06
0.00340111
-2.4404e-06
0.00340132
-2.08008e-06
0.00340149
-1.72367e-06
0.00340162
-1.37041e-06
0.00340172
-1.02035e-06
0.00340178
-6.73497e-07
-3.02648e-07
0.00333618
3.24776e-05
0.00334523
8.46048e-05
0.00335689
0.000110042
0.00336832
0.000114686
0.00337821
0.000108353
0.00338621
9.68731e-05
0.0033925
8.28316e-05
0.0033975
6.7288e-05
0.00340173
5.06984e-05
0.00340576
3.32886e-05
0.00341017
1.51923e-05
0.00341552
-3.47324e-06
0.00342239
-2.26223e-05
0.00343131
-4.19941e-05
0.00344276
-6.12611e-05
0.00345715
-7.99524e-05
0.0034747
-9.73584e-05
0.00349551
-0.00011265
0.00351936
-0.000124761
0.00354577
-0.000132503
0.00357381
-0.000134653
0.00360223
-0.000130069
0.00362936
-0.000117856
0.00365329
-9.75782e-05
0.00367198
-6.94287e-05
0.00368352
-3.43912e-05
0.00368637
5.67091e-06
0.00367973
4.81202e-05
0.00366373
8.96587e-05
0.00363956
0.000126889
0.00360934
0.000156894
0.00357565
0.000177869
0.00354103
0.00018938
0.00350761
0.000192121
0.00347694
0.000187501
0.00345001
0.000177199
0.00342728
0.000162988
0.00340878
0.000146503
0.00339423
0.000129127
0.00338315
0.000111902
0.003375
9.55419e-05
0.00336924
8.04537e-05
0.00336537
6.68303e-05
0.00336299
5.47188e-05
0.00336175
4.40748e-05
0.00336138
3.48037e-05
0.00336168
2.67866e-05
0.00336247
1.98991e-05
0.00336363
1.40197e-05
0.00336505
9.03483e-06
0.00336665
4.83953e-06
0.00336838
1.33671e-06
0.00337019
-1.57002e-06
0.00337201
-3.92643e-06
0.00337385
-5.83395e-06
0.00337566
-7.33619e-06
0.00337743
-8.49269e-06
0.00337915
-9.36908e-06
0.00338081
-9.99764e-06
0.0033824
-1.04186e-05
0.00338392
-1.0663e-05
0.00338537
-1.07624e-05
0.00338674
-1.07412e-05
0.00338804
-1.06211e-05
0.00338926
-1.04205e-05
0.00339041
-1.01548e-05
0.0033915
-9.83824e-06
0.00339251
-9.48191e-06
0.00339346
-9.09489e-06
0.00339435
-8.68564e-06
0.00339517
-8.26028e-06
0.00339594
-7.82414e-06
0.00339666
-7.38161e-06
0.00339732
-6.93622e-06
0.00339793
-6.49056e-06
0.0033985
-6.04674e-06
0.00339901
-5.60635e-06
0.00339949
-5.1706e-06
0.00339992
-4.74025e-06
0.0034003
-4.31562e-06
0.00340065
-3.89703e-06
0.00340096
-3.48445e-06
0.00340124
-3.07775e-06
0.00340147
-2.67663e-06
0.00340167
-2.28058e-06
0.00340184
-1.88899e-06
0.00340197
-1.50108e-06
0.00340207
-1.1167e-06
0.00340213
-7.36023e-07
-3.28944e-07
0.00333486
3.09475e-05
0.00334116
7.83095e-05
0.00334971
0.00010149
0.00335832
0.00010608
0.00336589
0.000100775
0.00337211
9.06551e-05
0.00337705
7.78976e-05
0.00338099
6.33409e-05
0.00338438
4.73155e-05
0.0033877
2.99682e-05
0.00339151
1.13801e-05
0.0033964
-8.36405e-06
0.00340305
-2.9272e-05
0.00341209
-5.10333e-05
0.00342415
-7.33241e-05
0.00343981
-9.56071e-05
0.00345953
-0.000117076
0.00348354
-0.000136663
0.00351179
-0.000153009
0.0035438
-0.000164513
0.00357858
-0.000169442
0.0036146
-0.000166089
0.00364976
-0.000153011
0.00368148
-0.000129305
0.00370696
-9.49021e-05
0.0037234
-5.08307e-05
0.00372847
6.01849e-07
0.0037208
5.57835e-05
0.00370043
0.000110029
0.00366909
0.000158237
0.00362997
0.000196013
0.00358698
0.000220859
0.00354375
0.000232609
0.00350308
0.00023279
0.00346683
0.000223753
0.00343603
0.000207997
0.00341103
0.000187983
0.00339162
0.000165915
0.00337719
0.000143557
0.00336693
0.00012216
0.00336002
0.000102456
0.00335569
8.47839e-05
0.00335331
6.92126e-05
0.00335237
5.56576e-05
0.00335249
4.39579e-05
0.00335337
3.39246e-05
0.00335479
2.53663e-05
0.00335658
1.81029e-05
0.00335863
1.19708e-05
0.00336084
6.82558e-06
0.00336314
2.54143e-06
0.00336547
-9.97264e-07
0.00336782
-3.9136e-06
0.00337011
-6.21509e-06
0.00337232
-8.05266e-06
0.00337447
-9.48488e-06
0.00337654
-1.05587e-05
0.00337851
-1.13387e-05
0.00338038
-1.1868e-05
0.00338215
-1.21872e-05
0.00338382
-1.2331e-05
0.00338538
-1.23308e-05
0.00338686
-1.22128e-05
0.00338824
-1.19996e-05
0.00338952
-1.17094e-05
0.00339073
-1.13587e-05
0.00339185
-1.0961e-05
0.0033929
-1.05272e-05
0.00339387
-1.00672e-05
0.00339477
-9.58873e-06
0.00339561
-9.09809e-06
0.00339639
-8.6002e-06
0.0033971
-8.09929e-06
0.00339777
-7.59849e-06
0.00339838
-7.10033e-06
0.00339894
-6.60672e-06
0.00339945
-6.11904e-06
0.00339992
-5.63814e-06
0.00340034
-5.16448e-06
0.00340072
-4.69834e-06
0.00340107
-4.23982e-06
0.00340137
-3.78882e-06
0.00340164
-3.345e-06
0.00340187
-2.90781e-06
0.00340206
-2.47649e-06
0.00340223
-2.0504e-06
0.00340235
-1.62863e-06
0.00340245
-1.21074e-06
0.00340251
-7.96915e-07
-3.54374e-07
0.00333373
3.05492e-05
0.00333772
7.43241e-05
0.0033436
9.56061e-05
0.00334965
0.000100027
0.00335498
9.54501e-05
0.00335927
8.63659e-05
0.00336254
7.46204e-05
0.00336503
6.08565e-05
0.00336707
4.52712e-05
0.00336914
2.79059e-05
0.00337176
8.75103e-06
0.00337554
-1.21379e-05
0.00338132
-3.50552e-05
0.00338984
-5.95544e-05
0.00340194
-8.54235e-05
0.00341844
-0.000112106
0.00344008
-0.000138714
0.00346738
-0.00016396
0.0035005
-0.000186136
0.00353912
-0.000203127
0.0035822
-0.000212523
0.00362793
-0.000211823
0.00367367
-0.000198748
0.00371601
-0.000171642
0.00375101
-0.000129907
0.00377462
-7.44371e-05
0.0037832
-7.98039e-06
0.00377438
6.46064e-05
0.00374786
0.000136544
0.00370615
0.000199951
0.00365434
0.000247821
0.00359853
0.000276672
0.00354398
0.000287162
0.00349423
0.000282539
0.00345136
0.000266625
0.00341635
0.000243002
0.0033893
0.000215032
0.00336957
0.000185651
0.00335603
0.000157097
0.0033474
0.000130791
0.00334246
0.000107396
0.00334019
8.70538e-05
0.00333979
6.96067e-05
0.00334069
5.47608e-05
0.00334246
4.21899e-05
0.0033448
3.15822e-05
0.00334751
2.26585e-05
0.00335044
1.51773e-05
0.00335347
8.93395e-06
0.00335654
3.75489e-06
0.0033596
-5.10327e-07
0.00336258
-3.98673e-06
0.00336546
-6.79361e-06
0.00336824
-8.98736e-06
0.00337088
-1.06936e-05
0.00337338
-1.19876e-05
0.00337575
-1.29235e-05
0.00337797
-1.35593e-05
0.00338005
-1.39511e-05
0.00338199
-1.41313e-05
0.00338381
-1.41446e-05
0.0033855
-1.40202e-05
0.00338707
-1.37817e-05
0.00338852
-1.34557e-05
0.00338987
-1.30597e-05
0.00339112
-1.261e-05
0.00339228
-1.21195e-05
0.00339335
-1.15993e-05
0.00339434
-1.10584e-05
0.00339526
-1.05045e-05
0.00339611
-9.94335e-06
0.00339688
-9.37963e-06
0.0033976
-8.81703e-06
0.00339826
-8.25832e-06
0.00339887
-7.70573e-06
0.00339942
-7.16092e-06
0.00339993
-6.6249e-06
0.00340039
-6.0982e-06
0.00340081
-5.58108e-06
0.00340118
-5.07356e-06
0.00340152
-4.57548e-06
0.00340181
-4.08646e-06
0.00340208
-3.60594e-06
0.0034023
-3.13315e-06
0.00340249
-2.66725e-06
0.00340265
-2.20742e-06
0.00340277
-1.75262e-06
0.00340286
-1.30208e-06
0.00340292
-8.55988e-07
-3.78954e-07
0.00333273
3.11478e-05
0.00333472
7.23337e-05
0.00333827
9.20592e-05
0.00334199
9.63031e-05
0.00334514
9.23073e-05
0.00334741
8.40908e-05
0.00334881
7.32257e-05
0.00334948
6.01814e-05
0.00334973
4.50193e-05
0.00334998
2.76562e-05
0.00335077
7.96622e-06
0.00335276
-1.41303e-05
0.00335686
-3.91549e-05
0.00336402
-6.67152e-05
0.00337533
-9.67359e-05
0.00339195
-0.000128725
0.003415
-0.000161762
0.00344543
-0.000194386
0.0034838
-0.000224508
0.00353006
-0.000249389
0.00358327
-0.000265733
0.00364138
-0.000269936
0.00370112
-0.000258481
0.00375799
-0.000228517
0.00380657
-0.000178481
0.00384089
-0.000108757
0.00385522
-2.23133e-05
0.0038453
7.45263e-05
0.00380998
0.00017186
0.00375296
0.000256978
0.00368259
0.00031819
0.00360888
0.000350378
0.00353953
0.00035651
0.00347865
0.00034342
0.00342817
0.000317104
0.00338887
0.000282302
0.0033604
0.000243502
0.00334143
0.000204626
0.00333002
0.000168505
0.00332419
0.000136623
0.00332222
0.000109366
0.00332279
8.64803e-05
0.00332497
6.74281e-05
0.00332812
5.16085e-05
0.00333184
3.84729e-05
0.00333586
2.75633e-05
0.00334001
1.85104e-05
0.00334417
1.10143e-05
0.00334827
4.83217e-06
0.00335226
-2.35489e-07
0.00335611
-4.35345e-06
0.00335978
-7.65773e-06
0.00336323
-1.02478e-05
0.0033665
-1.22533e-05
0.00336957
-1.37614e-05
0.00337243
-1.48507e-05
0.00337509
-1.55871e-05
0.00337757
-1.60367e-05
0.00337986
-1.62396e-05
0.00338197
-1.62481e-05
0.00338393
-1.6099e-05
0.00338573
-1.58195e-05
0.00338739
-1.54404e-05
0.00338891
-1.49827e-05
0.00339032
-1.4465e-05
0.00339161
-1.39025e-05
0.0033928
-1.33083e-05
0.00339389
-1.26923e-05
0.0033949
-1.20633e-05
0.00339582
-1.14279e-05
0.00339667
-1.07914e-05
0.00339745
-1.01579e-05
0.00339816
-9.53099e-06
0.00339881
-8.91218e-06
0.00339941
-8.30383e-06
0.00339996
-7.70673e-06
0.00340046
-7.12162e-06
0.00340091
-6.54876e-06
0.00340131
-5.98813e-06
0.00340168
-5.43946e-06
0.00340201
-4.90229e-06
0.00340229
-4.37581e-06
0.00340255
-3.85926e-06