/*--------------------------------*- C++ -*----------------------------------*\
| =========                 |                                                 |
| \\      /  F ield         | OpenFOAM: The Open Source CFD Toolbox           |
|  \\    /   O peration     | Version:  v1806                                 |
|   \\  /    A nd           | Web:      www.OpenFOAM.com                      |
|    \\/     M anipulation  |                                                 |
\*---------------------------------------------------------------------------*/
FoamFile
{
    version     2.0;
    format      ascii;
    class       volVectorField;
    location    "0.06";
    object      U;
}
// * * * * * * * * * * * * * * * * * * * * * * * * * * * * * * * * * * * * * //

dimensions      [0 1 -1 0 0 0 0];


internalField   nonuniform List<vector> 
5400
(
(0.840797 0.0965084 0)
(0.780096 0.0991119 0)
(0.66157 0.0608854 0)
(0.574734 0.0312948 0)
(0.533891 0.0148705 0)
(0.514441 0.00735736 0)
(0.50304 0.00398087 0)
(0.495945 0.00228163 0)
(0.491565 0.00134715 0)
(0.488825 0.000782125 0)
(0.487149 0.000394562 0)
(0.486249 0.000100374 0)
(0.48595 -0.000136048 0)
(0.486134 -0.000324629 0)
(0.486718 -0.000470532 -3.32e-36)
(0.487619 -0.000585769 3.32e-36)
(0.488761 -0.000670721 0)
(0.490073 -0.000722658 0)
(0.491483 -0.000739604 0)
(0.492916 -0.000720844 0)
(0.494295 -0.00066529 0)
(0.495543 -0.000572561 0)
(0.496587 -0.000445632 0)
(0.497358 -0.000288375 0)
(0.497795 -0.000105272 0)
(0.497855 9.59467e-05 0)
(0.497503 0.000305749 0)
(0.496725 0.00051616 0)
(0.495528 0.000718109 0)
(0.493938 0.000901876 0)
(0.491993 0.00105963 0)
(0.489749 0.00118671 0)
(0.487273 0.00127982 0)
(0.484635 0.00133669 0)
(0.481905 0.00135781 0)
(0.479152 0.00134671 0)
(0.476441 0.00130794 0)
(0.473824 0.00124576 0)
(0.471345 0.00116479 0)
(0.469036 0.00107061 0)
(0.466921 0.000968825 0)
(0.465014 0.0008638 0)
(0.46332 0.000758541 0)
(0.461835 0.000655556 0)
(0.460555 0.000557373 0)
(0.459468 0.000465996 0)
(0.458561 0.000382387 0)
(0.457819 0.000306611 0)
(0.457225 0.000238456 0)
(0.456764 0.000177955 0)
(0.456421 0.000125161 0)
(0.45618 7.98004e-05 0)
(0.456028 4.10986e-05 0)
(0.455952 7.99546e-06 0)
(0.455939 -2.02965e-05 0)
(0.455979 -4.34317e-05 0)
(0.456065 -6.20346e-05 0)
(0.456187 -7.62006e-05 0)
(0.456338 -8.70482e-05 0)
(0.45651 -9.53987e-05 0)
(0.456699 -0.000101535 0)
(0.4569 -0.000105846 0)
(0.457109 -0.000108468 0)
(0.457323 -0.000109448 0)
(0.457539 -0.000109 0)
(0.457754 -0.000107453 0)
(0.457966 -0.000105116 0)
(0.458174 -0.000102283 0)
(0.458376 -9.90936e-05 0)
(0.458572 -9.54619e-05 0)
(0.458759 -9.1381e-05 0)
(0.458939 -8.69374e-05 0)
(0.45911 -8.22624e-05 0)
(0.459272 -7.74327e-05 0)
(0.459424 -7.25548e-05 0)
(0.459567 -6.77052e-05 0)
(0.4597 -6.28888e-05 0)
(0.459823 -5.81059e-05 0)
(0.459936 -5.33547e-05 0)
(0.46004 -4.85999e-05 0)
(0.460135 -4.38066e-05 0)
(0.46022 -3.90044e-05 0)
(0.460295 -3.42549e-05 0)
(0.460361 -2.95861e-05 0)
(0.460418 -2.49933e-05 0)
(0.460465 -2.04687e-05 0)
(0.460503 -1.58482e-05 0)
(0.460532 -1.13448e-05 0)
(0.460553 -5.59425e-06 0)
(0.460557 1.10104e-07 0)
(0.990245 0.145653 0)
(1.04739 0.17727 0)
(1.04471 0.128939 0)
(1.00717 0.0782933 0)
(0.979466 0.043971 0)
(0.962409 0.0250752 0)
(0.949467 0.0151048 0)
(0.939762 0.00950377 0)
(0.93302 0.00612811 0)
(0.92839 0.00393574 0)
(0.925242 0.0023884 0)
(0.923224 0.00121913 0)
(0.922104 0.000296306 0)
(0.921712 -0.000441964 0)
(0.921907 -0.00103946 0)
(0.92257 -0.00151261 0)
(0.923607 -0.00186815 0)
(0.924927 -0.00210679 0)
(0.926428 -0.00222631 0)
(0.928019 -0.00222215 0)
(0.929602 -0.00209408 0)
(0.931076 -0.00184291 0)
(0.932349 -0.00147398 0)
(0.933332 -0.00100021 0)
(0.933943 -0.000438419 0)
(0.934121 0.000189916 0)
(0.933821 0.000856223 0)
(0.933014 0.00153113 0)
(0.931702 0.00218474 0)
(0.929907 0.00278802 0)
(0.927671 0.00331517 0)
(0.925056 0.00374673 0)
(0.922139 0.00407009 0)
(0.919003 0.00427918 0)
(0.915731 0.00437505 0)
(0.912407 0.00436561 0)
(0.90911 0.00426329 0)
(0.905908 0.00408264 0)
(0.902852 0.00383965 0)
(0.899986 0.0035513 0)
(0.897341 0.00323402 0)
(0.894938 0.00290191 0)
(0.892784 0.00256621 0)
(0.890878 0.00223616 0)
(0.889217 0.00191965 0)
(0.887789 0.00162254 0)
(0.886581 0.00134813 0)
(0.885575 0.00109769 0)
(0.884752 0.000871644 0)
(0.884094 0.000670259 0)
(0.883585 0.00049333 0)
(0.883206 0.000339603 0)
(0.882941 0.000207161 0)
(0.882774 9.36806e-05 0)
(0.88269 -2.69401e-06 0)
(0.882677 -8.27587e-05 0)
(0.882724 -0.000148175 0)
(0.882821 -0.00020097 0)
(0.882958 -0.000242558 0)
(0.883126 -0.000274897 0)
(0.883319 -0.000299219 0)
(0.88353 -0.000316823 0)
(0.883754 -0.000328577 0)
(0.883988 -0.000334894 0)
(0.884227 -0.000336476 0)
(0.884468 -0.000334287 0)
(0.884709 -0.000329202 0)
(0.884946 -0.000321932 0)
(0.885179 -0.000312932 0)
(0.885404 -0.000302425 0)
(0.885622 -0.000290461 0)
(0.885831 -0.000277234 0)
(0.886032 -0.00026313 0)
(0.886222 -0.000248477 0)
(0.886402 -0.000233526 0)
(0.886572 -0.000218439 0)
(0.886729 -0.000203292 0)
(0.886876 -0.000188153 0)
(0.887012 -0.000173013 0)
(0.887136 -0.000157832 0)
(0.887249 -0.000142607 0)
(0.887351 -0.00012741 0)
(0.887442 -0.000112339 0)
(0.887522 -9.74488e-05 0)
(0.887591 -8.27386e-05 0)
(0.887649 -6.82301e-05 0)
(0.887696 -5.35145e-05 0)
(0.887734 -3.95635e-05 0)
(0.887757 -2.35828e-05 0)
(0.887772 -6.34005e-06 0)
(0.994621 0.078787 0)
(1.05908 0.131971 0)
(1.09321 0.1176 0)
(1.0853 0.0853155 0)
(1.074 0.0570748 0)
(1.0655 0.0377653 0)
(1.05662 0.0253847 0)
(1.04872 0.0173253 0)
(1.04279 0.0118842 0)
(1.0385 0.00804011 0)
(1.03547 0.00518811 0)
(1.03347 0.00298136 0)
(1.03234 0.00122002 0)
(1.03193 -0.000211378 0)
(1.03211 -0.00138066 0)
(1.0328 -0.00231572 0)
(1.03388 -0.00303112 0)
(1.03528 -0.00353125 0)
(1.03688 -0.00381274 0)
(1.0386 -0.00386912 0)
(1.04033 -0.00369706 0)
(1.04197 -0.00329999 0)
(1.0434 -0.00268681 0)
(1.04453 -0.00187702 0)
(1.04528 -0.000900714 0)
(1.04556 0.000202943 0)
(1.04534 0.00138377 0)
(1.04456 0.00258876 0)
(1.04323 0.00376282 0)
(1.04139 0.00485289 0)
(1.03906 0.00581139 0)
(1.03632 0.00660103 0)
(1.03326 0.00719785 0)
(1.02996 0.00759119 0)
(1.02652 0.00778245 0)
(1.02304 0.00778378 0)
(1.01958 0.00761643 0)
(1.01624 0.00730756 0)
(1.01306 0.00688686 0)
(1.01009 0.00638406 0)
(1.00735 0.00582713 0)
(1.00487 0.00524111 0)
(1.00266 0.00464746 0)
(1.00071 0.0040637 0)
(0.999006 0.00350311 0)
(0.997549 0.00297496 0)
(0.996319 0.00248516 0)
(0.995297 0.00203716 0)
(0.994462 0.00163274 0)
(0.993796 0.0012721 0)
(0.993281 0.000954078 0)
(0.992899 0.000676297 0)
(0.992632 0.000435832 0)
(0.992464 0.000229504 0)
(0.99238 5.45541e-05 0)
(0.992369 -9.20212e-05 0)
(0.992417 -0.000212893 0)
(0.992515 -0.000311557 0)
(0.992654 -0.000390418 0)
(0.992825 -0.000452239 0)
(0.993021 -0.000499429 0)
(0.993234 -0.000533855 0)
(0.993461 -0.000557249 0)
(0.993698 -0.000571019 0)
(0.99394 -0.000576628 0)
(0.994184 -0.000575599 0)
(0.994428 -0.000569125 0)
(0.994668 -0.000558158 0)
(0.994903 -0.000543578 0)
(0.995131 -0.000526079 0)
(0.995351 -0.00050605 0)
(0.995563 -0.000483933 0)
(0.995766 -0.000460234 0)
(0.995959 -0.000435417 0)
(0.996141 -0.000409885 0)
(0.996313 -0.000383923 0)
(0.996473 -0.000357689 0)
(0.996622 -0.000331293 0)
(0.996759 -0.000304795 0)
(0.996885 -0.000278252 0)
(0.997 -0.000251726 0)
(0.997104 -0.000225297 0)
(0.997197 -0.000199049 0)
(0.997278 -0.000173033 0)
(0.997349 -0.00014725 0)
(0.997408 -0.000121725 0)
(0.997456 -9.61252e-05 0)
(0.997496 -7.12991e-05 0)
(0.997519 -4.54299e-05 0)
(0.997539 -1.78844e-05 0)
(0.988943 0.0490285 0)
(1.03657 0.0991539 0)
(1.0724 0.101207 0)
(1.07407 0.0826835 0)
(1.07229 0.0616148 0)
(1.07095 0.0444683 0)
(1.06682 0.0318865 0)
(1.06191 0.0228341 0)
(1.05785 0.0162257 0)
(1.05475 0.011266 0)
(1.0525 0.00742245 0)
(1.05102 0.00435674 0)
(1.05026 0.00185419 0)
(1.05013 -0.000217113 0)
(1.05057 -0.00192106 4.3743e-34)
(1.05148 -0.00330833 -4.3743e-34)
(1.0528 -0.00438681 0)
(1.05443 -0.00515497 0)
(1.05629 -0.00560732 0)
(1.05827 -0.00573117 0)
(1.06027 -0.00551852 0)
(1.06217 -0.00496969 0)
(1.06386 -0.00409644 0)
(1.06522 -0.00292512 0)
(1.06616 -0.00149855 0)
(1.06658 0.000124247 0)
(1.06643 0.00187063 0)
(1.06567 0.00365973 0)
(1.06429 0.00540668 0)
(1.06233 0.00702927 0)
(1.05983 0.0084552 0)
(1.05689 0.00962862 0)
(1.05359 0.0105133 0)
(1.05005 0.0110925 0)
(1.04638 0.0113691 0)
(1.04268 0.0113631 0)
(1.03904 0.0111084 0)
(1.03554 0.0106463 0)
(1.03223 0.0100214 0)
(1.02917 0.009278 0)
(1.02637 0.00845809 0)
(1.02386 0.00759904 0)
(1.02164 0.00673226 0)
(1.01969 0.00588246 0)
(1.01802 0.00506798 0)
(1.01659 0.00430175 0)
(1.0154 0.00359248 0)
(1.01442 0.00294527 0)
(1.01363 0.00236213 0)
(1.013 0.00184252 0)
(1.01253 0.00138412 0)
(1.01219 0.000983598 0)
(1.01195 0.000637015 0)
(1.01182 0.000339969 0)
(1.01177 8.81288e-05 0)
(1.01178 -0.00012303 0)
(1.01186 -0.000297334 0)
(1.01198 -0.000439008 0)
(1.01213 -0.000552857 0)
(1.01232 -0.00064249 0)
(1.01253 -0.000710868 0)
(1.01276 -0.000760555 0)
(1.013 -0.000794215 0)
(1.01324 -0.000814309 0)
(1.01349 -0.000822916 0)
(1.01374 -0.000822036 0)
(1.01399 -0.000813275 0)
(1.01424 -0.000797921 0)
(1.01447 -0.000777239 0)
(1.01471 -0.000752188 0)
(1.01493 -0.000723631 0)
(1.01514 -0.000692303 0)
(1.01535 -0.000658768 0)
(1.01554 -0.000623575 0)
(1.01572 -0.000587258 0)
(1.0159 -0.000550226 0)
(1.01606 -0.000512728 0)
(1.01621 -0.00047493 0)
(1.01634 -0.000437012 0)
(1.01647 -0.000399098 0)
(1.01659 -0.000361269 0)
(1.01669 -0.000323607 0)
(1.01678 -0.000286182 0)
(1.01686 -0.000249023 0)
(1.01694 -0.000212139 0)
(1.017 -0.000175612 0)
(1.01704 -0.000139272 0)
(1.01708 -0.000103559 0)
(1.01711 -6.7693e-05 0)
(1.01713 -2.96457e-05 0)
(0.986047 0.033191 0)
(1.02105 0.0758522 0)
(1.05107 0.0847404 0)
(1.05405 0.0750346 0)
(1.05653 0.0601701 0)
(1.05958 0.0462144 0)
(1.05902 0.0348196 0)
(1.05674 0.0258947 0)
(1.05455 0.0189116 0)
(1.05276 0.013369 0)
(1.05144 0.00887934 0)
(1.05064 0.00517106 0)
(1.0504 0.00206357 0)
(1.0507 -0.000558547 0)
(1.0515 -0.00276918 0)
(1.05275 -0.00459312 0)
(1.05441 -0.00603526 0)
(1.0564 -0.00708439 0)
(1.05862 -0.00772129 0)
(1.06099 -0.00792244 0)
(1.06338 -0.00767112 0)
(1.06566 -0.00696089 0)
(1.06772 -0.0058026 0)
(1.06941 -0.00422909 0)
(1.07062 -0.00229666 0)
(1.07124 -8.47362e-05 0)
(1.07119 0.00230724 0)
(1.07043 0.00476354 0)
(1.06896 0.00716242 0)
(1.06682 0.00938759 0)
(1.06406 0.0113374 0)
(1.0608 0.0129324 0)
(1.05715 0.0141212 0)
(1.05326 0.014883 0)
(1.04925 0.015226 0)
(1.04524 0.0151825 0)
(1.04133 0.014802 0)
(1.03761 0.0141436 0)
(1.03415 0.0132709 0)
(1.03097 0.0122465 0)
(1.02811 0.0111285 0)
(1.02557 0.00996718 0)
(1.02335 0.00880341 0)
(1.02144 0.00766887 0)
(1.01981 0.00658705 0)
(1.01844 0.00557444 0)
(1.01732 0.00464146 0)
(1.01641 0.00379345 0)
(1.01569 0.00303174 0)
(1.01513 0.00235471 0)
(1.01473 0.0017589 0)
(1.01445 0.00123951 0)
(1.01427 0.000791036 0)
(1.01419 0.000407711 0)
(1.01419 8.34974e-05 0)
(1.01425 -0.000187136 0)
(1.01436 -0.000411283 0)
(1.01451 -0.000593 0)
(1.0147 -0.000738802 0)
(1.01491 -0.000852818 0)
(1.01515 -0.000939072 0)
(1.01539 -0.00100161 0)
(1.01565 -0.00104373 0)
(1.01591 -0.0010684 0)
(1.01617 -0.00107832 0)
(1.01643 -0.00107596 0)
(1.01669 -0.00106345 0)
(1.01694 -0.00104262 0)
(1.01718 -0.00101497 0)
(1.01742 -0.000981702 0)
(1.01764 -0.000943946 0)
(1.01786 -0.000902713 0)
(1.01807 -0.000858768 0)
(1.01826 -0.000812798 0)
(1.01845 -0.00076539 0)
(1.01862 -0.000717027 0)
(1.01878 -0.000668064 0)
(1.01893 -0.000618764 0)
(1.01907 -0.000569339 0)
(1.0192 -0.000519941 0)
(1.01931 -0.000470699 0)
(1.01941 -0.000421723 0)
(1.01951 -0.00037308 0)
(1.01959 -0.000324799 0)
(1.01966 -0.000276904 0)
(1.01972 -0.000229487 0)
(1.01977 -0.000182446 0)
(1.01981 -0.000135999 0)
(1.01983 -8.98309e-05 0)
(1.01985 -4.07228e-05 0)
(0.984803 0.024207 0)
(1.01275 0.0594722 0)
(1.03739 0.0705734 0)
(1.03904 0.0661548 0)
(1.0428 0.0559506 0)
(1.04801 0.0450347 0)
(1.04963 0.0352648 0)
(1.04922 0.0270199 0)
(1.04851 0.0201507 0)
(1.04786 0.0144026 0)
(1.0474 0.00954042 0)
(1.04728 0.00537604 0)
(1.04758 0.00177848 0)
(1.04834 -0.00133587 0)
(1.04956 -0.00401552 0)
(1.05123 -0.00626616 0)
(1.05331 -0.00808048 0)
(1.05574 -0.00942959 0)
(1.05844 -0.0102709 0)
(1.0613 -0.0105661 0)
(1.06421 -0.010281 0)
(1.06701 -0.00939765 0)
(1.06957 -0.00792281 0)
(1.07171 -0.00589128 0)
(1.07328 -0.00337217 0)
(1.07417 -0.000469867 0)
(1.07427 0.00268023 0)
(1.07352 0.00592214 0)
(1.07191 0.0090888 0)
(1.06951 0.0120188 0)
(1.06639 0.0145707 0)
(1.06268 0.0166361 0)
(1.05856 0.0181487 0)
(1.05418 0.0190859 0)
(1.04971 0.0194654 0)
(1.04528 0.0193367 0)
(1.04102 0.0187713 0)
(1.03703 0.0178536 0)
(1.03336 0.0166716 0)
(1.03005 0.0153102 0)
(1.02712 0.0138452 0)
(1.02456 0.0123407 0)
(1.02236 0.0108476 0)
(1.02049 0.00940461 0)
(1.01893 0.00803934 0)
(1.01765 0.00677036 0)
(1.01662 0.00560832 0)
(1.01581 0.00455771 0)
(1.01519 0.00361848 0)
(1.01473 0.00278721 0)
(1.01441 0.00205851 0)
(1.01421 0.00142572 0)
(1.01411 0.000881246 0)
(1.0141 0.000417479 0)
(1.01416 2.64892e-05 0)
(1.01428 -0.000298398 0)
(1.01444 -0.000566214 0)
(1.01463 -0.000783693 0)
(1.01486 -0.000956763 0)
(1.0151 -0.00109077 0)
(1.01537 -0.00119126 0)
(1.01564 -0.00126317 0)
(1.01591 -0.00131057 0)
(1.01619 -0.00133703 0)
(1.01646 -0.00134593 0)
(1.01674 -0.00134013 0)
(1.01701 -0.0013221 0)
(1.01726 -0.00129418 0)
(1.01752 -0.00125819 0)
(1.01776 -0.00121561 0)
(1.01799 -0.00116775 0)
(1.01821 -0.00111584 0)
(1.01842 -0.00106085 0)
(1.01862 -0.00100352 0)
(1.0188 -0.000944548 0)
(1.01898 -0.000884487 0)
(1.01914 -0.000823769 0)
(1.01929 -0.000762742 0)
(1.01942 -0.000701653 0)
(1.01955 -0.000640677 0)
(1.01967 -0.000579952 0)
(1.01977 -0.000519579 0)
(1.01986 -0.000459643 0)
(1.01994 -0.000400228 0)
(1.02001 -0.000341373 0)
(1.02007 -0.000283099 0)
(1.02012 -0.000225292 0)
(1.02016 -0.000168131 0)
(1.02018 -0.000111451 0)
(1.0202 -5.10034e-05 0)
(0.98423 0.0187882 0)
(1.00826 0.0481244 0)
(1.02899 0.0593687 0)
(1.02874 0.0578831 0)
(1.0324 0.050861 0)
(1.03842 0.0423893 0)
(1.0412 0.0341835 0)
(1.04196 0.02679 0)
(1.04229 0.0202736 0)
(1.04251 0.0145456 0)
(1.04276 0.00949038 0)
(1.04322 0.00500158 0)
(1.04403 0.00100023 0)
(1.04524 -0.00255909 0)
(1.0469 -0.00569095 9.24556e-34)
(1.04902 -0.00838267 -9.24556e-34)
(1.05158 -0.0106005 0)
(1.05454 -0.0122844 0)
(1.05782 -0.0133685 0)
(1.06131 -0.0137891 0)
(1.06487 -0.0134873 0)
(1.06835 -0.0124253 0)
(1.07155 -0.0105965 0)
(1.07429 -0.00803542 0)
(1.07637 -0.00482533 0)
(1.07762 -0.00109882 0)
(1.07791 0.00296756 0)
(1.07717 0.00716054 0)
(1.07539 0.0112543 0)
(1.07263 0.0150272 0)
(1.06901 0.0182859 0)
(1.06471 0.0208862 0)
(1.05994 0.0227451 0)
(1.05492 0.0238413 0)
(1.04984 0.0242086 0)
(1.04488 0.0239232 0)
(1.04018 0.0230895 0)
(1.03585 0.0218258 0)
(1.03194 0.0202518 0)
(1.02848 0.0184787 0)
(1.02547 0.0166033 0)
(1.02291 0.0147046 0)
(1.02075 0.0128433 0)
(1.01896 0.0110642 0)
(1.01751 0.00939742 0)
(1.01634 0.00786147 0)
(1.01544 0.00646561 0)
(1.01475 0.00521207 0)
(1.01425 0.00409812 0)
(1.01391 0.00311772 0)
(1.0137 0.00226275 0)
(1.0136 0.001524 0)
(1.0136 0.000891548 0)
(1.01367 0.000355216 0)
(1.0138 -9.50734e-05 0)
(1.01399 -0.00046772 0)
(1.0142 -0.000772444 0)
(1.01445 -0.00101845 0)
(1.01472 -0.00121245 0)
(1.01501 -0.00136182 0)
(1.0153 -0.00147237 0)
(1.0156 -0.00154949 0)
(1.0159 -0.0015983 0)
(1.0162 -0.00162324 0)
(1.01649 -0.00162819 0)
(1.01678 -0.00161637 0)
(1.01706 -0.00159078 0)
(1.01733 -0.00155398 0)
(1.01759 -0.00150806 0)
(1.01784 -0.00145479 0)
(1.01807 -0.00139572 0)
(1.0183 -0.00133217 0)
(1.01851 -0.00126525 0)
(1.01871 -0.00119589 0)
(1.0189 -0.00112483 0)
(1.01907 -0.00105264 0)
(1.01923 -0.000979814 0)
(1.01938 -0.000906769 0)
(1.01952 -0.000833799 0)
(1.01965 -0.000761098 0)
(1.01976 -0.000688802 0)
(1.01986 -0.000617014 0)
(1.01996 -0.000545816 0)
(1.02004 -0.00047528 0)
(1.02011 -0.000405444 0)
(1.02016 -0.000336289 0)
(1.02021 -0.000267671 0)
(1.02025 -0.000199766 0)
(1.02027 -0.000132488 0)
(1.02029 -6.06351e-05 0)
(0.983929 0.015269 0)
(1.00563 0.0400513 0)
(1.02361 0.0506453 0)
(1.02156 0.0507184 0)
(1.02456 0.045796 0)
(1.03066 0.0391595 0)
(1.03391 0.0322804 0)
(1.03532 0.0257142 0)
(1.0363 0.0196235 0)
(1.03711 0.0140204 0)
(1.03789 0.00887026 0)
(1.03882 0.00413229 0)
(1.04005 -0.000224814 0)
(1.04168 -0.00421245 0)
(1.04376 -0.00781222 0)
(1.04635 -0.0109823 0)
(1.04944 -0.0136536 0)
(1.053 -0.0157386 0)
(1.05696 -0.0171342 0)
(1.06121 -0.017737 0)
(1.0656 -0.0174539 0)
(1.06994 -0.016216 0)
(1.07399 -0.0139955 0)
(1.07751 -0.0108214 0)
(1.08025 -0.00678832 0)
(1.08199 -0.00206053 0)
(1.08256 0.00313123 0)
(1.08184 0.00850217 0)
(1.07981 0.0137421 0)
(1.07657 0.0185467 0)
(1.07228 0.022653 0)
(1.06717 0.0258702 0)
(1.06155 0.0280963 0)
(1.05568 0.0293177 0)
(1.04982 0.0295969 0)
(1.04419 0.0290516 0)
(1.03896 0.0278332 0)
(1.03423 0.0261063 0)
(1.03005 0.0240309 0)
(1.02643 0.0217508 0)
(1.02337 0.0193866 0)
(1.02083 0.0170328 0)
(1.01875 0.0147592 0)
(1.01708 0.012614 0)
(1.01576 0.0106271 0)
(1.01475 0.00881477 0)
(1.01401 0.00718239 0)
(1.01347 0.00572815 0)
(1.01312 0.0044451 0)
(1.01292 0.00332342 0)
(1.01285 0.00235148 0)
(1.01287 0.00151663 0)
(1.01298 0.00080615 0)
(1.01315 0.000207305 0)
(1.01337 -0.000291494 0)
(1.01363 -0.00070393 0)
(1.01392 -0.00103782 0)
(1.01422 -0.00130503 0)
(1.01455 -0.00151354 0)
(1.01488 -0.00167156 0)
(1.01521 -0.00178612 0)
(1.01554 -0.00186385 0)
(1.01587 -0.00191001 0)
(1.01619 -0.00192967 0)
(1.0165 -0.00192732 0)
(1.01681 -0.00190661 0)
(1.0171 -0.00187093 0)
(1.01738 -0.00182307 0)
(1.01765 -0.00176537 0)
(1.0179 -0.00169983 0)
(1.01814 -0.0016282 0)
(1.01837 -0.0015519 0)
(1.01858 -0.00147214 0)
(1.01879 -0.00138994 0)
(1.01898 -0.00130614 0)
(1.01915 -0.00122135 0)
(1.01931 -0.00113609 0)
(1.01946 -0.00105077 0)
(1.0196 -0.000965692 0)
(1.01973 -0.000881071 0)
(1.01984 -0.000797074 0)
(1.01994 -0.000713823 0)
(1.02003 -0.000631375 0)
(1.02011 -0.000549741 0)
(1.02018 -0.000468924 0)
(1.02024 -0.000388911 0)
(1.02029 -0.000309527 0)
(1.02033 -0.000230897 0)
(1.02034 -0.000152992 0)
(1.02037 -6.97457e-05 0)
(0.983743 0.0128785 0)
(1.00394 0.0341636 0)
(1.01994 0.0438698 0)
(1.01636 0.0447338 0)
(1.01852 0.0411789 0)
(1.02432 0.0358725 0)
(1.02762 0.030043 0)
(1.02928 0.0241906 0)
(1.03059 0.0185045 0)
(1.03176 0.0130497 0)
(1.03288 0.00784238 0)
(1.03413 0.0028826 0)
(1.03568 -0.00182542 0)
(1.03765 -0.00626028 0)
(1.04013 -0.0103732 0)
(1.04318 -0.0140901 0)
(1.04683 -0.0173027 0)
(1.05106 -0.0198876 0)
(1.05582 -0.0216968 0)
(1.06099 -0.0225728 0)
(1.0664 -0.022373 0)
(1.07181 -0.0209835 0)
(1.07695 -0.018342 0)
(1.0815 -0.014459 0)
(1.08513 -0.00943581 0)
(1.08754 -0.00347442 0)
(1.08848 0.00312362 0)
(1.08779 0.00998034 0)
(1.08544 0.0166666 0)
(1.08154 0.0227608 0)
(1.07634 0.0279014 0)
(1.07016 0.0318348 0)
(1.06339 0.0344399 0)
(1.05642 0.0357241 0)
(1.04957 0.0357987 0)
(1.04312 0.0348448 0)
(1.03724 0.0330807 0)
(1.03205 0.0307331 0)
(1.02759 0.0280146 0)
(1.02384 0.0251085 0)
(1.02076 0.0221616 0)
(1.01828 0.0192834 0)
(1.01633 0.0165498 0)
(1.01483 0.0140084 0)
(1.01371 0.0116853 0)
(1.0129 0.00959057 0)
(1.01235 0.00772299 0)
(1.01202 0.00607431 0)
(1.01185 0.00463185 0)
(1.01182 0.00338046 0)
(1.01189 0.0023039 0)
(1.01206 0.00138559 0)
(1.01229 0.000609382 0)
(1.01257 -3.97406e-05 0)
(1.01289 -0.000575475 0)
(1.01324 -0.00101588 0)
(1.01361 -0.0013705 0)
(1.01398 -0.00165038 0)
(1.01436 -0.00186533 0)
(1.01474 -0.00202487 0)
(1.01511 -0.00213739 0)
(1.01548 -0.00220982 0)
(1.01584 -0.00224825 0)
(1.01618 -0.00225828 0)
(1.01652 -0.00224478 0)
(1.01684 -0.00221202 0)
(1.01715 -0.00216343 0)
(1.01744 -0.00210205 0)
(1.01771 -0.00203047 0)
(1.01798 -0.00195091 0)
(1.01822 -0.00186527 0)
(1.01845 -0.00177505 0)
(1.01867 -0.00168149 0)
(1.01888 -0.00158567 0)
(1.01907 -0.00148845 0)
(1.01924 -0.00139051 0)
(1.01941 -0.0012924 0)
(1.01956 -0.00119451 0)
(1.01969 -0.00109713 0)
(1.01982 -0.00100048 0)
(1.01993 -0.000904694 0)
(1.02003 -0.000809894 0)
(1.02012 -0.000716121 0)
(1.0202 -0.000623374 0)
(1.02027 -0.000531611 0)
(1.02033 -0.000440793 0)
(1.02037 -0.000350723 0)
(1.02041 -0.00026146 0)
(1.02043 -0.000172993 0)
(1.02045 -7.84322e-05 0)
(0.983609 0.0112395 0)
(1.00275 0.0298205 0)
(1.01726 0.0386276 0)
(1.0124 0.0398585 0)
(1.0137 0.0371876 0)
(1.01902 0.0328275 0)
(1.02212 0.0277941 0)
(1.02376 0.0225153 0)
(1.02515 0.0171719 0)
(1.02645 0.0118449 0)
(1.02772 0.00657272 0)
(1.02915 0.00138008 0)
(1.03091 -0.00370528 0)
(1.03313 -0.00863331 0)
(1.03593 -0.013335 2.54782e-34)
(1.03942 -0.0177005 -2.54782e-34)
(1.04364 -0.0215874 0)
(1.04861 -0.0248181 0)
(1.05428 -0.0271892 0)
(1.06054 -0.028481 0)
(1.06719 -0.028478 0)
(1.07397 -0.0269984 0)
(1.08051 -0.0239223 0)
(1.08641 -0.0192249 0)
(1.09124 -0.0130058 0)
(1.09456 -0.00550816 0)
(1.09602 0.00287945 0)
(1.09538 0.0116413 0)
(1.09259 0.0201873 0)
(1.08781 0.0279239 0)
(1.08135 0.034345 0)
(1.07371 0.0391107 0)
(1.06544 0.0420857 0)
(1.05704 0.0433227 0)
(1.04894 0.0430146 0)
(1.04148 0.041438 0)
(1.03485 0.0389058 0)
(1.02916 0.0357289 0)
(1.02442 0.0321868 0)
(1.02058 0.0285094 0)
(1.01755 0.0248712 0)
(1.01522 0.0213932 0)
(1.01347 0.0181516 0)
(1.01221 0.0151879 0)
(1.01135 0.0125182 0)
(1.01079 0.0101416 0)
(1.01049 0.00804673 0)
(1.01038 0.00621596 0)
(1.01043 0.00462887 0)
(1.0106 0.00326376 0)
(1.01085 0.00209876 0)
(1.01118 0.00111289 0)
(1.01155 0.000286176 0)
(1.01196 -0.00039855 0)
(1.01239 -0.000961596 0)
(1.01283 -0.00141646 0)
(1.01328 -0.00177929 0)
(1.01373 -0.00206086 0)
(1.01417 -0.00227318 0)
(1.0146 -0.00242641 0)
(1.01502 -0.00252954 0)
(1.01543 -0.00259003 0)
(1.01582 -0.00261505 0)
(1.01619 -0.00261065 0)
(1.01655 -0.00258188 0)
(1.01689 -0.00253332 0)
(1.01721 -0.00246871 0)
(1.01751 -0.00239126 0)
(1.0178 -0.00230362 0)
(1.01807 -0.0022082 0)
(1.01832 -0.00210696 0)
(1.01855 -0.0020015 0)
(1.01877 -0.0018931 0)
(1.01898 -0.00178283 0)
(1.01917 -0.00167155 0)
(1.01935 -0.00155993 0)
(1.01951 -0.00144852 0)
(1.01966 -0.00133772 0)
(1.0198 -0.00122783 0)
(1.01992 -0.00111901 0)
(1.02003 -0.00101138 0)
(1.02013 -0.000904995 0)
(1.02022 -0.000799885 0)
(1.0203 -0.000696046 0)
(1.02037 -0.000593398 0)
(1.02042 -0.000491837 0)
(1.02047 -0.000391154 0)
(1.0205 -0.000291369 0)
(1.02052 -0.000192484 0)
(1.02054 -8.67631e-05 0)
(0.983501 0.0101512 0)
(1.00183 0.0266323 0)
(1.0152 0.0346143 0)
(1.00926 0.0359833 0)
(1.00974 0.0338822 0)
(1.01447 0.0301891 0)
(1.01721 0.025749 0)
(1.01864 0.0209144 0)
(1.01992 0.0158379 0)
(1.02116 0.0105942 0)
(1.02241 0.00522655 0)
(1.02385 -0.000231117 0)
(1.02567 -0.00574172 0)
(1.02803 -0.0112421 0)
(1.03107 -0.0166358 2.65954e-34)
(1.03493 -0.021792 -2.65954e-34)
(1.03971 -0.0265292 0)
(1.04546 -0.0306124 0)
(1.05216 -0.0337658 0)
(1.0597 -0.0356853 0)
(1.06788 -0.0360589 0)
(1.07637 -0.0346039 0)
(1.08473 -0.0311117 0)
(1.09242 -0.0254947 0)
(1.09885 -0.0178327 0)
(1.10343 -0.00840773 0)
(1.10563 0.00228164 0)
(1.1051 0.0135353 0)
(1.10172 0.0245248 0)
(1.0957 0.0343965 0)
(1.08753 0.0424249 0)
(1.0779 0.0481514 0)
(1.0676 0.0514421 0)
(1.05735 0.0524425 0)
(1.04769 0.0514801 0)
(1.03901 0.0489743 0)
(1.03153 0.0453702 0)
(1.02533 0.0410901 0)
(1.02037 0.0364975 0)
(1.01652 0.0318765 0)
(1.01364 0.0274264 0)
(1.01156 0.0232722 0)
(1.01013 0.0194806 0)
(1.0092 0.0160774 0)
(1.00866 0.0130609 0)
(1.00843 0.0104132 0)
(1.00843 0.00810805 0)
(1.0086 0.00611557 0)
(1.00889 0.00440533 0)
(1.00929 0.00294795 0)
(1.00974 0.00171545 0)
(1.01025 0.000681745 0)
(1.01078 -0.000177145 0)
(1.01133 -0.000881203 0)
(1.01188 -0.00145355 0)
(1.01242 -0.00191063 0)
(1.01296 -0.00226855 0)
(1.01349 -0.00254117 0)
(1.01399 -0.002741 0)
(1.01448 -0.00287865 0)
(1.01495 -0.00296413 0)
(1.01539 -0.00300603 0)
(1.01582 -0.00301174 0)
(1.01622 -0.00298768 0)
(1.0166 -0.00293917 0)
(1.01695 -0.00287088 0)
(1.01729 -0.0027869 0)
(1.0176 -0.00269052 0)
(1.0179 -0.00258456 0)
(1.01817 -0.0024714 0)
(1.01843 -0.00235301 0)
(1.01867 -0.00223097 0)
(1.01889 -0.00210663 0)
(1.0191 -0.00198103 0)
(1.01929 -0.001855 0)
(1.01947 -0.00172918 0)
(1.01963 -0.00160408 0)
(1.01978 -0.0014801 0)
(1.01991 -0.00135746 0)
(1.02003 -0.00123632 0)
(1.02014 -0.00111676 0)
(1.02024 -0.000998798 0)
(1.02033 -0.000882416 0)
(1.02041 -0.000767569 0)
(1.02047 -0.00065413 0)
(1.02053 -0.00054194 0)
(1.02057 -0.000430769 0)
(1.02061 -0.000320607 0)
(1.02062 -0.000211475 0)
(1.02065 -9.47851e-05 0)
(0.983406 0.00949898 0)
(1.00109 0.0243557 0)
(1.01352 0.0316128 0)
(1.00666 0.0329995 0)
(1.00636 0.0312721 0)
(1.01049 0.0280551 0)
(1.01275 0.0240569 0)
(1.01383 0.0195592 0)
(1.01483 0.0146789 0)
(1.01584 0.00947261 0)
(1.0169 0.00397394 0)
(1.01819 -0.00178912 0)
(1.0199 -0.00778789 0)
(1.02224 -0.0139526 0)
(1.02539 -0.0201795 -6.9768e-35)
(1.02953 -0.0263121 6.9768e-35)
(1.03482 -0.032131 0)
(1.04137 -0.0373423 0)
(1.04921 -0.0415842 0)
(1.05825 -0.0444399 0)
(1.06828 -0.0454664 0)
(1.07892 -0.0442389 0)
(1.08962 -0.0404115 0)
(1.0997 -0.0337878 0)
(1.10833 -0.0243931 0)
(1.11467 -0.0125365 0)
(1.11796 0.00115103 0)
(1.11763 0.0157234 0)
(1.11346 0.0299932 0)
(1.10571 0.0427019 0)
(1.09511 0.0527755 0)
(1.08274 0.059587 0)
(1.06973 0.0630484 0)
(1.05708 0.0634928 0)
(1.04548 0.0614674 0)
(1.03537 0.0575964 0)
(1.02697 0.0525059 0)
(1.02029 0.0467657 0)
(1.01521 0.0408444 0)
(1.01151 0.0350827 0)
(1.00895 0.029696 0)
(1.00727 0.0247975 0)
(1.00628 0.0204286 0)
(1.00579 0.0165854 0)
(1.00568 0.0132379 0)
(1.00584 0.0103442 0)
(1.00619 0.00785788 0)
(1.00668 0.00573393 0)
(1.00726 0.00393015 0)
(1.00791 0.00240833 0)
(1.00859 0.00113431 0)
(1.00928 7.7737e-05 0)
(1.00999 -0.00078916 0)
(1.01069 -0.00149545 0)
(1.01136 -0.0020598 0)
(1.01202 -0.00250329 0)
(1.01265 -0.00284332 0)
(1.01326 -0.00309433 0)
(1.01383 -0.0032702 0)
(1.01438 -0.00338265 0)
(1.0149 -0.00344233 0)
(1.01538 -0.0034583 0)
(1.01584 -0.00343831 0)
(1.01627 -0.00338907 0)
(1.01667 -0.00331613 0)
(1.01704 -0.00322427 0)
(1.01739 -0.00311758 0)
(1.01771 -0.00299945 0)
(1.01802 -0.00287277 0)
(1.0183 -0.0027399 0)
(1.01856 -0.00260275 0)
(1.0188 -0.00246285 0)
(1.01902 -0.00232151 0)
(1.01923 -0.00217972 0)
(1.01942 -0.00203826 0)
(1.0196 -0.00189774 0)
(1.01976 -0.00175861 0)
(1.01991 -0.00162118 0)
(1.02004 -0.00148562 0)
(1.02016 -0.00135205 0)
(1.02027 -0.00122051 0)
(1.02037 -0.001091 0)
(1.02045 -0.000963437 0)
(1.02053 -0.000837699 0)
(1.02059 -0.000713604 0)
(1.02065 -0.000590958 0)
(1.02069 -0.000469505 0)
(1.02072 -0.000349167 0)
(1.02074 -0.000229984 0)
(1.02076 -0.000102534 0)
(0.98332 0.00921257 0)
(1.00046 0.0228291 0)
(1.0121 0.0294679 0)
(1.00443 0.0308175 0)
(1.00341 0.0293466 0)
(1.0069 0.0264814 0)
(1.00863 0.0228206 0)
(1.00924 0.0185841 0)
(1.00983 0.0138505 0)
(1.01045 0.00864855 0)
(1.01115 0.00298809 0)
(1.01209 -0.00312523 0)
(1.01351 -0.00967329 0)
(1.01563 -0.0166058 0)
(1.01871 -0.0238226 0)
(1.02298 -0.0311558 0)
(1.02868 -0.0383497 0)
(1.03601 -0.0450498 0)
(1.04506 -0.0507947 0)
(1.05582 -0.0550275 0)
(1.06808 -0.0571274 0)
(1.08143 -0.0564668 0)
(1.09518 -0.0524918 0)
(1.10844 -0.0448251 0)
(1.12011 -0.033376 0)
(1.12898 -0.0184445 0)
(1.1339 -0.000802828 0)
(1.13395 0.0182677 0)
(1.12871 0.037046 0)
(1.11849 0.0536124 0)
(1.10442 0.0663213 0)
(1.08818 0.0742993 0)
(1.07152 0.0776132 0)
(1.05577 0.0769702 0)
(1.0418 0.0732719 0)
(1.03005 0.0674224 0)
(1.02071 0.0602864 0)
(1.01367 0.0526285 0)
(1.00869 0.0450453 0)
(1.00538 0.0379303 0)
(1.00336 0.0314928 0)
(1.0023 0.0258065 0)
(1.00192 0.0208616 0)
(1.00201 0.0166051 0)
(1.00242 0.0129659 0)
(1.00305 0.00986989 0)
(1.00382 0.00724643 0)
(1.00467 0.00503251 0)
(1.00557 0.00317331 0)
(1.00649 0.00162165 0)
(1.00741 0.000337163 0)
(1.00832 -0.000715329 0)
(1.00921 -0.00156701 0)
(1.01006 -0.00225191 0)
(1.01087 -0.00279072 0)
(1.01164 -0.00320253 0)
(1.01237 -0.0035073 0)
(1.01306 -0.00372268 0)
(1.01371 -0.00386239 0)
(1.01431 -0.00393945 0)
(1.01487 -0.00396446 0)
(1.0154 -0.00394662 0)
(1.01589 -0.00389435 0)
(1.01634 -0.00381431 0)
(1.01676 -0.00371213 0)
(1.01715 -0.00359263 0)
(1.01751 -0.00345986 0)
(1.01785 -0.00331717 0)
(1.01816 -0.00316739 0)
(1.01844 -0.00301283 0)
(1.01871 -0.00285529 0)
(1.01895 -0.00269625 0)
(1.01917 -0.00253689 0)
(1.01938 -0.0023781 0)
(1.01957 -0.00222061 0)
(1.01975 -0.00206494 0)
(1.0199 -0.00191146 0)
(1.02005 -0.00176037 0)
(1.02018 -0.0016118 0)
(1.0203 -0.00146578 0)
(1.02041 -0.00132231 0)
(1.0205 -0.00118133 0)
(1.02058 -0.00104269 0)
(1.02066 -0.0009062 0)
(1.02072 -0.000771624 0)
(1.02077 -0.000638737 0)
(1.02081 -0.000507247 0)
(1.02085 -0.000376978 0)
(1.02086 -0.000247978 0)
(1.02088 -0.000110028 0)
(0.983242 0.00924451 0)
(0.999908 0.0219432 0)
(1.01086 0.0280685 0)
(1.00247 0.0293648 0)
(1.00078 0.0280854 0)
(1.00364 0.0254995 0)
(1.00478 0.0221166 0)
(1.00484 0.0181023 0)
(1.00489 0.0134947 0)
(1.00497 0.00828683 0)
(1.00512 0.00245408 0)
(1.00552 -0.00403388 0)
(1.00642 -0.0111813 0)
(1.00809 -0.0189812 0)
(1.01084 -0.0273563 -1.2464e-33)
(1.015 -0.0361453 1.2464e-33)
(1.02093 -0.0450732 0)
(1.02893 -0.0537254 0)
(1.03923 -0.0615294 0)
(1.05192 -0.067757 0)
(1.06684 -0.0715532 0)
(1.08356 -0.0720045 0)
(1.10127 -0.0682477 0)
(1.11882 -0.0596136 0)
(1.13471 -0.0457902 0)
(1.14726 -0.026987 0)
(1.15469 -0.00408797 0)
(1.15549 0.0212074 0)
(1.14882 0.0463836 0)
(1.135 0.0683734 0)
(1.11581 0.0845218 0)
(1.09404 0.0935932 0)
(1.07241 0.096086 0)
(1.05275 0.0934708 0)
(1.03594 0.0871963 0)
(1.02239 0.0785169 0)
(1.01218 0.0685912 0)
(1.00505 0.0584362 0)
(1.00051 0.048804 0)
(0.997961 0.0401247 0)
(0.996823 0.0325576 0)
(0.996641 0.026089 0)
(0.997079 0.0206185 0)
(0.997899 0.0160171 0)
(0.998947 0.0121576 0)
(1.00012 0.00892644 0)
(1.00135 0.00622648 0)
(1.00261 0.00397628 0)
(1.00385 0.0021087 0)
(1.00507 0.000568512 0)
(1.00625 -0.000690234 0)
(1.00738 -0.00170764 0)
(1.00845 -0.00252147 0)
(1.00946 -0.00315905 0)
(1.01041 -0.00364725 0)
(1.0113 -0.00400802 0)
(1.01213 -0.00426202 0)
(1.0129 -0.00442689 0)
(1.01362 -0.00451799 0)
(1.01428 -0.00454859 0)
(1.01489 -0.00452937 0)
(1.01545 -0.00446999 0)
(1.01597 -0.00437868 0)