/*--------------------------------*- C++ -*----------------------------------*\
| =========                 |                                                 |
| \\      /  F ield         | OpenFOAM: The Open Source CFD Toolbox           |
|  \\    /   O peration     | Version:  v1806                                 |
|   \\  /    A nd           | Web:      www.OpenFOAM.com                      |
|    \\/     M anipulation  |                                                 |
\*---------------------------------------------------------------------------*/
FoamFile
{
    version     2.0;
    format      ascii;
    class       vectorField;
    location    "0.02";
    object      currentcloudofpoints;
}
// * * * * * * * * * * * * * * * * * * * * * * * * * * * * * * * * * * * * * //


648
(
(0.211339 0.51357 0.05)
(0.687167 0.506382 0.05)
(0.304371 0.56139 0.05)
(0.598945 0.454243 0.05)
(0.220937 0.493271 0.05)
(0.231339 0.4749 0.05)
(0.242286 0.458143 0.05)
(0.253669 0.442613 0.05)
(0.265607 0.427941 0.05)
(0.277728 0.413936 0.05)
(0.28993 0.400153 0.05)
(0.302199 0.386445 0.05)
(0.314496 0.372631 0.05)
(0.32692 0.358774 0.05)
(0.339549 0.344736 0.05)
(0.352489 0.330682 0.05)
(0.365969 0.316726 0.05)
(0.38029 0.303172 0.05)
(0.395626 0.290247 0.05)
(0.412221 0.278075 0.05)
(0.429969 0.26704 0.05)
(0.448931 0.257398 0.05)
(0.469257 0.249377 0.05)
(0.491062 0.243136 0.05)
(0.514485 0.238966 0.05)
(0.539536 0.237468 0.05)
(0.565801 0.239472 0.05)
(0.59251 0.245655 0.05)
(0.618777 0.256314 0.05)
(0.643594 0.271515 0.05)
(0.665938 0.290953 0.05)
(0.684588 0.313855 0.05)
(0.698732 0.339351 0.05)
(0.708075 0.366016 0.05)
(0.712715 0.392846 0.05)
(0.713004 0.418893 0.05)
(0.709769 0.443516 0.05)
(0.703929 0.466355 0.05)
(0.696236 0.487284 0.05)
(0.677204 0.523917 0.05)
(0.666807 0.540351 0.05)
(0.656114 0.556201 0.05)
(0.644841 0.571542 0.05)
(0.633175 0.586597 0.05)
(0.621143 0.601422 0.05)
(0.608992 0.616056 0.05)
(0.597085 0.630519 0.05)
(0.585777 0.644893 0.05)
(0.575287 0.659314 0.05)
(0.565753 0.673967 0.05)
(0.557039 0.688929 0.05)
(0.548453 0.704236 0.05)
(0.539255 0.719845 0.05)
(0.528328 0.735405 0.05)
(0.514924 0.750669 0.05)
(0.498301 0.764968 0.05)
(0.478614 0.777401 0.05)
(0.45532 0.787272 0.05)
(0.429191 0.793634 0.05)
(0.4011 0.795725 0.05)
(0.372209 0.793241 0.05)
(0.344023 0.78661 0.05)
(0.3177 0.776708 0.05)
(0.29379 0.764164 0.05)
(0.27233 0.749393 0.05)
(0.253138 0.73252 0.05)
(0.236169 0.713358 0.05)
(0.221677 0.691851 0.05)
(0.210003 0.667913 0.05)
(0.201401 0.641904 0.05)
(0.196388 0.614651 0.05)
(0.195255 0.587251 0.05)
(0.197774 0.560787 0.05)
(0.203359 0.536079 0.05)
(0.310362 0.548721 0.05)
(0.317432 0.535945 0.05)
(0.325314 0.522902 0.05)
(0.333959 0.509511 0.05)
(0.343249 0.495738 0.05)
(0.353208 0.481476 0.05)
(0.363755 0.46672 0.05)
(0.374948 0.451815 0.05)
(0.386774 0.437036 0.05)
(0.399117 0.422817 0.05)
(0.411905 0.409477 0.05)
(0.424857 0.39732 0.05)
(0.437889 0.386422 0.05)
(0.450794 0.376686 0.05)
(0.463304 0.368075 0.05)
(0.475685 0.360376 0.05)
(0.487894 0.353536 0.05)
(0.499784 0.347464 0.05)
(0.51131 0.342146 0.05)
(0.522709 0.337749 0.05)
(0.53407 0.334281 0.05)
(0.545593 0.33214 0.05)
(0.557167 0.331364 0.05)
(0.568876 0.332484 0.05)
(0.580346 0.335447 0.05)
(0.591173 0.340571 0.05)
(0.600844 0.347933 0.05)
(0.608879 0.357032 0.05)
(0.614875 0.367818 0.05)
(0.618453 0.379726 0.05)
(0.61971 0.392065 0.05)
(0.618738 0.404585 0.05)
(0.615846 0.417027 0.05)
(0.611407 0.429379 0.05)
(0.605692 0.441722 0.05)
(0.591307 0.467212 0.05)
(0.582937 0.480775 0.05)
(0.574077 0.494897 0.05)
(0.564725 0.509475 0.05)
(0.554948 0.524515 0.05)
(0.544545 0.539881 0.05)
(0.533354 0.555252 0.05)
(0.521353 0.570502 0.05)
(0.508714 0.585641 0.05)
(0.495971 0.600402 0.05)
(0.483669 0.614787 0.05)
(0.471931 0.628904 0.05)
(0.461189 0.64235 0.05)
(0.451207 0.655016 0.05)
(0.441894 0.666816 0.05)
(0.43289 0.677435 0.05)
(0.423923 0.686675 0.05)
(0.41477 0.694342 0.05)
(0.405038 0.700275 0.05)
(0.39456 0.704277 0.05)
(0.383378 0.706209 0.05)
(0.371575 0.706001 0.05)
(0.359482 0.70362 0.05)
(0.347451 0.699189 0.05)
(0.335887 0.692723 0.05)
(0.325299 0.684478 0.05)
(0.315964 0.674653 0.05)
(0.308153 0.663513 0.05)
(0.301986 0.651428 0.05)
(0.297541 0.638797 0.05)
(0.294773 0.625825 0.05)
(0.293637 0.612785 0.05)
(0.294091 0.599775 0.05)
(0.296117 0.58688 0.05)
(0.299551 0.574083 0.05)
(0.659414 0.447917 0.05)
(0.252319 0.569589 0.05)
(0.283121 0.510972 0.05)
(0.621372 0.505343 0.05)
(0.323702 0.455941 0.05)
(0.421088 0.344364 0.05)
(0.52531 0.627099 0.05)
(0.370951 0.39744 0.05)
(0.484656 0.686689 0.05)
(0.576363 0.563843 0.05)
(0.476342 0.306174 0.05)
(0.251909 0.643125 0.05)
(0.447115 0.734461 0.05)
(0.668197 0.370962 0.05)
(0.376634 0.750026 0.05)
(0.2972 0.712848 0.05)
(0.541442 0.285168 0.05)
(0.618569 0.302699 0.05)
(0.30811 0.514536 0.05)
(0.29378 0.537579 0.05)
(0.630461 0.447791 0.05)
(0.641611 0.423516 0.05)
(0.278859 0.568324 0.05)
(0.272488 0.593195 0.05)
(0.348842 0.45766 0.05)
(0.330109 0.483198 0.05)
(0.593659 0.502017 0.05)
(0.610534 0.477862 0.05)
(0.646785 0.38785 0.05)
(0.64089 0.359607 0.05)
(0.549116 0.563387 0.05)
(0.569544 0.535896 0.05)
(0.398169 0.398114 0.05)
(0.375979 0.4233 0.05)
(0.49729 0.626702 0.05)
(0.51968 0.599813 0.05)
(0.502164 0.321123 0.05)
(0.479919 0.332806 0.05)
(0.450396 0.351611 0.05)
(0.42765 0.369319 0.05)
(0.418484 0.721834 0.05)
(0.436881 0.708272 0.05)
(0.45688 0.683195 0.05)
(0.472293 0.660266 0.05)
(0.272713 0.628233 0.05)
(0.279968 0.655425 0.05)
(0.359234 0.72578 0.05)
(0.387152 0.729416 0.05)
(0.300466 0.688346 0.05)
(0.323445 0.708711 0.05)
(0.558031 0.307165 0.05)
(0.532599 0.310277 0.05)
(0.618018 0.328804 0.05)
(0.593133 0.313941 0.05)
(0.666936 0.411221 0.05)
(0.639367 0.475721 0.05)
(0.268289 0.540856 0.05)
(0.304503 0.486032 0.05)
(0.597579 0.531611 0.05)
(0.249927 0.605496 0.05)
(0.348708 0.428688 0.05)
(0.450571 0.325786 0.05)
(0.548702 0.593858 0.05)
(0.465517 0.710986 0.05)
(0.398124 0.370873 0.05)
(0.499904 0.655965 0.05)
(0.648334 0.333155 0.05)
(0.50826 0.295429 0.05)
(0.414702 0.745838 0.05)
(0.335308 0.735042 0.05)
(0.271125 0.679399 0.05)
(0.579452 0.289778 0.05)
(0.679117 0.341993 0.05)
(0.692044 0.396438 0.05)
(0.687893 0.437166 0.05)
(0.671335 0.479956 0.05)
(0.221963 0.582667 0.05)
(0.23445 0.53786 0.05)
(0.610404 0.565862 0.05)
(0.583011 0.599131 0.05)
(0.513443 0.265232 0.05)
(0.563728 0.262504 0.05)
(0.291152 0.451522 0.05)
(0.316184 0.420905 0.05)
(0.483694 0.740025 0.05)
(0.446632 0.76368 0.05)
(0.307187 0.74545 0.05)
(0.263403 0.709099 0.05)
(0.238874 0.673832 0.05)
(0.222693 0.622856 0.05)
(0.441403 0.294971 0.05)
(0.479099 0.275341 0.05)
(0.40666 0.772424 0.05)
(0.349092 0.764869 0.05)
(0.561607 0.625578 0.05)
(0.536747 0.658445 0.05)
(0.384612 0.341399 0.05)
(0.414811 0.31381 0.05)
(0.52077 0.684339 0.05)
(0.502796 0.716536 0.05)
(0.336628 0.396775 0.05)
(0.363266 0.365504 0.05)
(0.605235 0.273138 0.05)
(0.652782 0.304965 0.05)
(0.250268 0.508415 0.05)
(0.272457 0.475681 0.05)
(0.653779 0.507687 0.05)
(0.630331 0.540506 0.05)
(0.305426 0.537705 0.05)
(0.298931 0.549873 0.05)
(0.312736 0.525587 0.05)
(0.301 0.526333 0.05)
(0.320831 0.513236 0.05)
(0.295663 0.513763 0.05)
(0.288616 0.524637 0.05)
(0.614813 0.449632 0.05)
(0.621407 0.437707 0.05)
(0.636129 0.435745 0.05)
(0.626888 0.425586 0.05)
(0.645373 0.44755 0.05)
(0.650991 0.435387 0.05)
(0.630918 0.413011 0.05)
(0.291623 0.565801 0.05)
(0.287331 0.578167 0.05)
(0.275516 0.580772 0.05)
(0.284404 0.590731 0.05)
(0.265872 0.569392 0.05)
(0.262375 0.581748 0.05)
(0.282887 0.603637 0.05)
(0.341466 0.483173 0.05)
(0.332177 0.496454 0.05)
(0.351254 0.469581 0.05)
(0.339546 0.470813 0.05)
(0.361683 0.45557 0.05)
(0.336241 0.457839 0.05)
(0.327363 0.469717 0.05)
(0.59693 0.477895 0.05)
(0.604991 0.465416 0.05)
(0.588351 0.490798 0.05)
(0.601869 0.489463 0.05)
(0.579305 0.504287 0.05)
(0.607696 0.502574 0.05)
(0.615901 0.491286 0.05)
(0.630611 0.369473 0.05)
(0.625201 0.357028 0.05)
(0.633333 0.382541 0.05)
(0.644594 0.373707 0.05)
(0.633535 0.395851 0.05)
(0.658412 0.379654 0.05)
(0.655207 0.36466 0.05)
(0.557105 0.536854 0.05)
(0.56699 0.522382 0.05)
(0.546631 0.551477 0.05)
(0.559279 0.549276 0.05)
(0.535331 0.566122 0.05)
(0.562779 0.562598 0.05)
(0.572588 0.549787 0.05)
(0.387523 0.423328 0.05)
(0.376044 0.437217 0.05)
(0.399437 0.41005 0.05)
(0.387298 0.410714 0.05)
(0.411587 0.397669 0.05)
(0.384621 0.398226 0.05)
(0.374384 0.410072 0.05)
(0.507686 0.599743 0.05)
(0.519825 0.585337 0.05)
(0.495751 0.613781 0.05)
(0.507968 0.613061 0.05)
(0.484272 0.627616 0.05)
(0.510952 0.626441 0.05)
(0.521318 0.613781 0.05)
(0.490522 0.33992 0.05)
(0.479148 0.346432 0.05)
(0.50178 0.334197 0.05)
(0.491283 0.327104 0.05)
(0.513112 0.32919 0.05)
(0.489681 0.313512 0.05)
(0.478823 0.319421 0.05)
(0.439623 0.372755 0.05)
(0.427525 0.382843 0.05)
(0.45163 0.363767 0.05)
(0.439311 0.360387 0.05)
(0.463634 0.355752 0.05)
(0.436092 0.347875 0.05)
(0.425512 0.356602 0.05)
(0.425162 0.701825 0.05)
(0.433717 0.693459 0.05)
(0.415926 0.708581 0.05)
(0.427817 0.715329 0.05)
(0.405693 0.713616 0.05)
(0.432439 0.728671 0.05)
(0.441822 0.721794 0.05)
(0.461302 0.65787 0.05)
(0.470755 0.645038 0.05)
(0.452637 0.66978 0.05)
(0.464054 0.671738 0.05)
(0.44444 0.680695 0.05)
(0.470309 0.685168 0.05)
(0.477168 0.674054 0.05)
(0.288743 0.647348 0.05)
(0.294175 0.660288 0.05)
(0.285145 0.63418 0.05)
(0.275982 0.641847 0.05)
(0.283261 0.620881 0.05)
(0.26218 0.635399 0.05)
(0.265887 0.649503 0.05)
(0.37859 0.718077 0.05)
(0.390909 0.717429 0.05)
(0.365637 0.71646 0.05)
(0.373361 0.728195 0.05)
(0.352487 0.712698 0.05)
(0.367395 0.738208 0.05)
(0.382492 0.740217 0.05)
(0.323842 0.696782 0.05)
(0.335867 0.704773 0.05)
(0.313089 0.687121 0.05)
(0.311529 0.698921 0.05)
(0.303886 0.676073 0.05)
(0.298213 0.700563 0.05)
(0.310392 0.711228 0.05)
(0.539882 0.3209 0.05)
(0.528094 0.32389 0.05)
(0.551963 0.319291 0.05)
(0.545135 0.308548 0.05)
(0.564433 0.3194 0.05)
(0.550223 0.295863 0.05)
(0.536861 0.297384 0.05)
(0.593103 0.326926 0.05)
(0.580751 0.322387 0.05)
(0.604592 0.333729 0.05)
(0.605785 0.3207 0.05)
(0.614707 0.342654 0.05)
(0.619164 0.315443 0.05)
(0.605784 0.307348 0.05)
(0.644868 0.406017 0.05)
(0.654886 0.417606 0.05)
(0.657595 0.399014 0.05)
(0.663613 0.430001 0.05)
(0.668764 0.391526 0.05)
(0.620216 0.46235 0.05)
(0.625119 0.475959 0.05)
(0.635112 0.461584 0.05)
(0.629955 0.49012 0.05)
(0.64932 0.461858 0.05)
(0.286284 0.553198 0.05)
(0.281172 0.539944 0.05)
(0.273512 0.554817 0.05)
(0.275911 0.526143 0.05)
(0.260366 0.555223 0.05)
(0.319274 0.499631 0.05)
(0.317286 0.485721 0.05)
(0.30662 0.500389 0.05)
(0.314459 0.471509 0.05)
(0.294051 0.499203 0.05)
(0.581254 0.51815 0.05)
(0.583641 0.532526 0.05)
(0.595307 0.516647 0.05)
(0.586653 0.54712 0.05)
(0.609135 0.517558 0.05)
(0.272154 0.610627 0.05)
(0.26133 0.599328 0.05)
(0.261203 0.617159 0.05)
(0.250723 0.587327 0.05)
(0.250221 0.624052 0.05)
(0.362587 0.44096 0.05)
(0.36223 0.42689 0.05)
(0.349453 0.443 0.05)
(0.360329 0.413318 0.05)
(0.336412 0.443173 0.05)
(0.465694 0.342341 0.05)
(0.465642 0.329167 0.05)
(0.45134 0.338602 0.05)
(0.463806 0.316162 0.05)
(0.43623 0.335139 0.05)
(0.534131 0.581255 0.05)
(0.534185 0.596047 0.05)
(0.548287 0.578803 0.05)
(0.536103 0.610251 0.05)
(0.562385 0.578189 0.05)
(0.446508 0.695982 0.05)
(0.450899 0.709968 0.05)
(0.460143 0.697678 0.05)
(0.456676 0.722953 0.05)
(0.474687 0.698791 0.05)
(0.413492 0.383462 0.05)
(0.412963 0.370175 0.05)
(0.399277 0.384096 0.05)
(0.410329 0.357514 0.05)
(0.384894 0.384326 0.05)
(0.483641 0.64322 0.05)
(0.485684 0.657882 0.05)
(0.49725 0.6418 0.05)
(0.491065 0.671282 0.05)
(0.511585 0.641048 0.05)
(0.630601 0.343392 0.05)
(0.645733 0.346408 0.05)
(0.633528 0.329922 0.05)
(0.659653 0.35144 0.05)
(0.634446 0.31677 0.05)
(0.517372 0.315778 0.05)
(0.520825 0.302666 0.05)
(0.505256 0.308118 0.05)
(0.52444 0.290076 0.05)
(0.492366 0.300883 0.05)
(0.403401 0.726482 0.05)
(0.400459 0.738209 0.05)
(0.41706 0.734227 0.05)
(0.396399 0.749037 0.05)
(0.431523 0.740803 0.05)
(0.341033 0.71812 0.05)
(0.328682 0.722053 0.05)
(0.347772 0.731093 0.05)
(0.3157 0.724762 0.05)
(0.355692 0.743547 0.05)
(0.289456 0.672246 0.05)
(0.274982 0.667194 0.05)
(0.285691 0.684269 0.05)
(0.260811 0.66153 0.05)
(0.283198 0.696571 0.05)
(0.575364 0.309666 0.05)
(0.586938 0.301446 0.05)
(0.568336 0.297879 0.05)
(0.599072 0.294927 0.05)
(0.560184 0.286736 0.05)
(0.682064 0.327692 0.05)
(0.694145 0.354106 0.05)
(0.687775 0.369006 0.05)
(0.70084 0.381452 0.05)
(0.674722 0.356585 0.05)
(0.680804 0.383578 0.05)
(0.702498 0.408536 0.05)
(0.687632 0.474747 0.05)
(0.678351 0.494297 0.05)
(0.695305 0.453044 0.05)
(0.679781 0.45941 0.05)
(0.700714 0.428955 0.05)
(0.674103 0.443322 0.05)
(0.66528 0.464308 0.05)
(0.215684 0.545856 0.05)
(0.223726 0.5241 0.05)
(0.210144 0.569783 0.05)
(0.227922 0.559505 0.05)
(0.20788 0.595628 0.05)
(0.237214 0.574744 0.05)
(0.243734 0.553354 0.05)
(0.627436 0.568934 0.05)
(0.61494 0.584423 0.05)
(0.596116 0.581737 0.05)
(0.602177 0.59987 0.05)
(0.59343 0.563817 0.05)
(0.578704 0.58188 0.05)
(0.589337 0.615329 0.05)
(0.500749 0.254814 0.05)
(0.52484 0.25091 0.05)
(0.537833 0.262976 0.05)
(0.550543 0.250107 0.05)
(0.527236 0.275133 0.05)
(0.551638 0.273158 0.05)
(0.577406 0.253317 0.05)
(0.273233 0.446709 0.05)
(0.285277 0.432326 0.05)
(0.304479 0.437262 0.05)
(0.297486 0.418045 0.05)
(0.307776 0.455122 0.05)
(0.320965 0.438356 0.05)
(0.309657 0.403662 0.05)
(0.500697 0.743956 0.05)
(0.484284 0.757769 0.05)
(0.46661 0.752254 0.05)
(0.46417 0.769618 0.05)
(0.46565 0.737111 0.05)
(0.448414 0.749022 0.05)
(0.440456 0.778624 0.05)
(0.312964 0.761344 0.05)
(0.288817 0.746567 0.05)
(0.284205 0.728036 0.05)
(0.267438 0.729282 0.05)
(0.301612 0.729248 0.05)
(0.279748 0.710657 0.05)
(0.248706 0.709597 0.05)
(0.236254 0.692703 0.05)
(0.22345 0.668739 0.05)
(0.22948 0.648338 0.05)
(0.214353 0.643166 0.05)
(0.244228 0.657331 0.05)
(0.236983 0.632188 0.05)
(0.209139 0.616552 0.05)
(0.425448 0.287703 0.05)
(0.443433 0.276776 0.05)
(0.460119 0.285318 0.05)
(0.462567 0.267383 0.05)
(0.458792 0.300831 0.05)
(0.477219 0.290905 0.05)
(0.483221 0.259559 0.05)
(0.419597 0.782813 0.05)
(0.391018 0.783665 0.05)
(0.378126 0.770514 0.05)
(0.36187 0.779481 0.05)
(0.391894 0.761733 0.05)
(0.363774 0.75811 0.05)
(0.333494 0.770814 0.05)
(0.579656 0.627468 0.05)
(0.567453 0.642596 0.05)
(0.547428 0.641317 0.05)
(0.556397 0.657772 0.05)
(0.543271 0.625328 0.05)
(0.5293 0.643243 0.05)
(0.546596 0.673258 0.05)
(0.367749 0.337339 0.05)
(0.381736 0.323379 0.05)
(0.400291 0.327966 0.05)
(0.396431 0.30983 0.05)
(0.402648 0.343445 0.05)
(0.41845 0.329346 0.05)
(0.412128 0.296985 0.05)
(0.53942 0.68545 0.05)
(0.530676 0.701116 0.05)
(0.510818 0.700045 0.05)
(0.521744 0.716753 0.05)
(0.502291 0.684957 0.05)
(0.493132 0.701795 0.05)
(0.510931 0.7324 0.05)
(0.319419 0.392457 0.05)
(0.332026 0.378094 0.05)
(0.350657 0.381706 0.05)
(0.344664 0.363496 0.05)
(0.353739 0.39835 0.05)
(0.368102 0.381389 0.05)
(0.357557 0.348904 0.05)
(0.598331 0.259297 0.05)
(0.624321 0.271235 0.05)
(0.629966 0.287087 0.05)
(0.648226 0.28784 0.05)
(0.612296 0.287475 0.05)
(0.636002 0.302663 0.05)
(0.668929 0.308895 0.05)
(0.231486 0.508617 0.05)
(0.242024 0.490637 0.05)
(0.262191 0.492441 0.05)
(0.252867 0.474049 0.05)
(0.267404 0.51013 0.05)
(0.278654 0.493397 0.05)
(0.264136 0.458354 0.05)
(0.670119 0.508248 0.05)
(0.659261 0.524982 0.05)
(0.641345 0.523433 0.05)
(0.648125 0.541013 0.05)
(0.637632 0.506225 0.05)
(0.625217 0.523134 0.05)
(0.636873 0.556878 0.05)
(0.662301 0.493888 0.05)
(0.655623 0.478216 0.05)
(0.646253 0.491945 0.05)
(0.620027 0.552646 0.05)
(0.613937 0.535266 0.05)
(0.603343 0.548942 0.05)
(0.242688 0.522954 0.05)
(0.251998 0.538854 0.05)
(0.259993 0.524622 0.05)
(0.282224 0.464029 0.05)
(0.289111 0.481731 0.05)
(0.298832 0.469038 0.05)
(0.690723 0.417341 0.05)
(0.680358 0.404512 0.05)
(0.677834 0.42445 0.05)
(0.326881 0.409355 0.05)
(0.332716 0.426269 0.05)
(0.343691 0.412695 0.05)
(0.221619 0.602383 0.05)
(0.235715 0.612389 0.05)
(0.235959 0.593301 0.05)
(0.571634 0.611987 0.05)
(0.565802 0.595545 0.05)
(0.553765 0.610113 0.05)
(0.527678 0.671027 0.05)
(0.517788 0.656537 0.05)
(0.508842 0.670541 0.05)
(0.428319 0.304587 0.05)
(0.432583 0.320129 0.05)
(0.445903 0.310628 0.05)
(0.493607 0.728132 0.05)
(0.483894 0.713633 0.05)
(0.475171 0.725438 0.05)
(0.495914 0.270221 0.05)
(0.493437 0.285553 0.05)
(0.509952 0.280181 0.05)
(0.374411 0.353704 0.05)
(0.380553 0.369024 0.05)
(0.392205 0.356327 0.05)
(0.667134 0.322604 0.05)
(0.651335 0.318777 0.05)
(0.664398 0.33686 0.05)
(0.427427 0.768919 0.05)
(0.431202 0.754976 0.05)
(0.412353 0.759414 0.05)
(0.250327 0.691815 0.05)
(0.266192 0.693618 0.05)
(0.254386 0.675759 0.05)
(0.327655 0.755918 0.05)
(0.342135 0.75023 0.05)
(0.321302 0.740483 0.05)
(0.584409 0.266737 0.05)
(0.571601 0.275873 0.05)
(0.591965 0.28046 0.05)
)


// ************************************************************************* //
