/*--------------------------------*- C++ -*----------------------------------*\
| =========                 |                                                 |
| \\      /  F ield         | OpenFOAM: The Open Source CFD Toolbox           |
|  \\    /   O peration     | Version:  v1806                                 |
|   \\  /    A nd           | Web:      www.OpenFOAM.com                      |
|    \\/     M anipulation  |                                                 |
\*---------------------------------------------------------------------------*/
FoamFile
{
    version     2.0;
    format      ascii;
    class       volScalarField;
    location    "0.02";
    object      p;
}
// * * * * * * * * * * * * * * * * * * * * * * * * * * * * * * * * * * * * * //

dimensions      [0 2 -2 0 0 0 0];


internalField   nonuniform List<scalar> 
5400
(
2.54939
2.04294
1.85384
1.76526
1.6903
1.62719
1.57584
1.53211
1.49342
1.45843
1.42626
1.39627
1.368
1.34108
1.31522
1.29021
1.26584
1.24198
1.21848
1.19525
1.17219
1.14924
1.12633
1.10345
1.08055
1.05763
1.03469
1.01176
0.988857
0.966019
0.943297
0.920738
0.898393
0.876317
0.854562
0.833168
0.81217
0.7916
0.771482
0.751826
0.73263
0.71389
0.695597
0.677736
0.660283
0.643211
0.626493
0.610105
0.594019
0.578206
0.562637
0.547286
0.532131
0.517152
0.502326
0.487632
0.473049
0.458562
0.44416
0.429831
0.415566
0.401353
0.38718
0.37304
0.358924
0.344831
0.330755
0.316693
0.302641
0.288595
0.27455
0.260505
0.246459
0.232412
0.218362
0.204308
0.190251
0.176188
0.162119
0.148044
0.133962
0.119876
0.105784
0.0916879
0.0775881
0.0634849
0.0493788
0.0352709
0.0211591
0.00704958
2.14952
1.89527
1.7942
1.74057
1.67854
1.62035
1.57154
1.52925
1.4914
1.45695
1.42515
1.39544
1.36737
1.34062
1.31489
1.28998
1.2657
1.2419
1.21846
1.19527
1.17223
1.1493
1.1264
1.1035
1.08058
1.05763
1.03466
1.01168
0.988727
0.965836
0.94306
0.920448
0.898056
0.875939
0.85415
0.832729
0.811715
0.79114
0.771026
0.751379
0.732199
0.71348
0.695213
0.677381
0.659957
0.642913
0.626225
0.609867
0.593809
0.578021
0.562475
0.547145
0.532011
0.517051
0.502242
0.487561
0.47299
0.458514
0.44412
0.429801
0.415544
0.401338
0.38717
0.373032
0.358921
0.344831
0.330758
0.316699
0.302648
0.288603
0.274559
0.260515
0.24647
0.232422
0.218372
0.204319
0.190261
0.176198
0.162128
0.148052
0.13397
0.119882
0.10579
0.0916931
0.077593
0.0634897
0.049383
0.0352748
0.0211663
0.00705598
1.99553
1.80736
1.74231
1.70834
1.65744
1.60592
1.56137
1.52185
1.48587
1.45273
1.42189
1.3929
1.36539
1.33908
1.31372
1.2891
1.26506
1.24146
1.21818
1.19511
1.17218
1.14931
1.12646
1.10358
1.08065
1.05767
1.03464
1.01159
0.988543
0.965548
0.942665
0.919947
0.897452
0.87524
0.85337
0.831887
0.810828
0.790225
0.7701
0.750461
0.731303
0.712619
0.694395
0.676612
0.659242
0.642257
0.625628
0.609327
0.593324
0.577588
0.562092
0.54681
0.53172
0.516798
0.502023
0.487373
0.47283
0.458379
0.44401
0.42971
0.41547
0.401278
0.387123
0.372997
0.358895
0.344813
0.330748
0.316695
0.302649
0.288607
0.274567
0.260526
0.246482
0.232436
0.218387
0.204334
0.190276
0.176212
0.162141
0.148064
0.133981
0.119893
0.1058
0.0917024
0.0776016
0.0634972
0.0493891
0.035281
0.0211721
0.00705869
1.88514
1.72757
1.68698
1.66961
1.63004
1.58612
1.54674
1.51083
1.47743
1.44617
1.41675
1.38885
1.3622
1.33658
1.31178
1.28762
1.26397
1.24069
1.21767
1.19482
1.17206
1.14932
1.12654
1.1037
1.08078
1.05775
1.03465
1.01148
0.988301
0.965154
0.942106
0.91922
0.89656
0.8742
0.852204
0.830619
0.809483
0.788832
0.76869
0.74906
0.729934
0.711298
0.693137
0.675429
0.658143
0.641245
0.624703
0.608488
0.592568
0.576914
0.561496
0.546286
0.53126
0.516398
0.501675
0.487074
0.472575
0.458165
0.443831
0.429561
0.415347
0.401178
0.387043
0.372935
0.35885
0.344781
0.330726
0.316682
0.302645
0.288611
0.274575
0.260538
0.246497
0.232453
0.218406
0.204353
0.190295
0.176231
0.16216
0.148082
0.133998
0.119909
0.105814
0.0917161
0.0776137
0.0635074
0.0493975
0.0352883
0.0211772
0.00706004
1.80536
1.66125
1.63571
1.63055
1.60041
1.56354
1.52936
1.49731
1.46681
1.43777
1.41007
1.38353
1.35798
1.33325
1.30918
1.28564
1.2625
1.23966
1.217
1.19445
1.17192
1.14935
1.12669
1.10392
1.08099
1.05791
1.0347
1.01139
0.988025
0.964662
0.94138
0.918256
0.895369
0.8728
0.850623
0.828892
0.80765
0.786936
0.766772
0.747155
0.728071
0.709503
0.691431
0.673827
0.656655
0.639875
0.623452
0.607355
0.59155
0.576007
0.560692
0.545577
0.530639
0.515856
0.501206
0.486671
0.472232
0.457874
0.443587
0.429359
0.415181
0.401043
0.386935
0.372852
0.358786
0.344735
0.330696
0.316665
0.302638
0.288612
0.274584
0.260552
0.246516
0.232475
0.218429
0.204378
0.19032
0.176256
0.162184
0.148106
0.134021
0.11993
0.105835
0.0917341
0.0776291
0.0635206
0.0494088
0.0352975
0.0211831
0.00706162
1.74452
1.60679
1.59024
1.59358
1.57081
1.53996
1.51055
1.48227
1.45473
1.42805
1.40224
1.37723
1.35293
1.32924
1.30605
1.28325
1.26074
1.23843
1.21622
1.19404
1.17181
1.14947
1.12697
1.10427
1.08135
1.05821
1.03487
1.01136
0.987738
0.964084
0.940491
0.917051
0.893858
0.871009
0.848591
0.826669
0.805293
0.784501
0.764311
0.744714
0.72569
0.707216
0.689263
0.671797
0.654773
0.638146
0.621877
0.605931
0.590274
0.57487
0.559686
0.544691
0.529864
0.515182
0.500623
0.48617
0.471805
0.457514
0.443285
0.429108
0.414974
0.400876
0.386802
0.372747
0.358708
0.344679
0.330659
0.316643
0.30263
0.288614
0.274594
0.260569
0.246538
0.232501
0.218458
0.204409
0.190353
0.176288
0.162216
0.148136
0.134049
0.119957
0.105859
0.0917555
0.0776478
0.063537
0.0494226
0.0353081
0.0211896
0.00706337
1.6958
1.56139
1.55038
1.55961
1.54245
1.51655
1.49132
1.46649
1.44181
1.41747
1.39361
1.37022
1.34728
1.32474
1.30253
1.28057
1.25879
1.2371
1.21542
1.19368
1.17181
1.14975
1.12744
1.10484
1.08193
1.05871
1.03519
1.01142
0.987478
0.963447
0.939446
0.915591
0.891997
0.868785
0.846061
0.8239
0.802358
0.781471
0.761258
0.741697
0.72276
0.704413
0.686617
0.669328
0.652492
0.636058
0.619981
0.604224
0.588747
0.573512
0.558487
0.54364
0.528946
0.514384
0.499935
0.485581
0.471304
0.457091
0.44293
0.428815
0.414734
0.40068
0.386647
0.372628
0.358618
0.344615
0.330616
0.31662
0.302621
0.288618
0.274608
0.26059
0.246565
0.232533
0.218493
0.204447
0.190391
0.176327
0.162254
0.148173
0.134085
0.11999
0.105888
0.0917814
0.0776709
0.0635569
0.0494385
0.0353199
0.0211968
0.00706553
1.65547
1.52295
1.51549
1.52886
1.51592
1.49401
1.47233
1.45058
1.42854
1.40646
1.38452
1.36277
1.34124
1.31991
1.29876
1.27772
1.25674
1.23575
1.21468
1.19346
1.17201
1.15028
1.1282
1.10572
1.08282
1.05949
1.03575
1.01166
0.987297
0.962779
0.938251
0.913857
0.889749
0.866077
0.842969
0.820515
0.798772
0.777774
0.757553
0.738056
0.719242
0.701065
0.683474
0.666408
0.649807
0.633611
0.617769
0.602239
0.586978
0.571947
0.557109
0.542432
0.527894
0.513474
0.499153
0.484912
0.470737
0.456614
0.442533
0.428485
0.414465
0.400464
0.386476
0.372497
0.358521
0.344547
0.330573
0.316597
0.302615
0.288625
0.274626
0.260618
0.2466
0.232573
0.218538
0.204492
0.190437
0.176373
0.1623
0.148217
0.134126
0.120028
0.105923
0.0918129
0.0776986
0.0635801
0.0494568
0.0353334
0.0212053
0.0070682
1.62131
1.48995
1.48487
1.50119
1.49147
1.47273
1.45402
1.43497
1.41532
1.39535
1.37524
1.35511
1.335
1.31492
1.29487
1.27481
1.2547
1.23449
1.2141
1.19346
1.1725
1.15116
1.12935
1.10703
1.08415
1.06068
1.03667
1.01216
0.987264
0.96212
0.93691
0.911825
0.887063
0.862811
0.839227
0.816417
0.794443
0.773316
0.753129
0.733734
0.715093
0.697141
0.67981
0.663026
0.646714
0.630808
0.615249
0.599989
0.584983
0.570186
0.555564
0.541085
0.526727
0.512467
0.498289
0.484177
0.470116
0.456093
0.442099
0.428129
0.414176
0.400233
0.386296
0.37236
0.358422
0.34448
0.330533
0.316579
0.302616
0.28864
0.274653
0.260654
0.246644
0.232623
0.21859
0.204547
0.190493
0.176428
0.162353
0.148268
0.134175
0.120073
0.105965
0.0918502
0.0777308
0.063607
0.0494782
0.0353494
0.0212151
0.00707125
1.59189
1.4613
1.45788
1.47636
1.46909
1.4529
1.43667
1.41994
1.40242
1.38438
1.36601
1.34744
1.32873
1.30991
1.29099
1.27196
1.25278
1.2334
1.21376
1.19378
1.17339
1.1525
1.13103
1.1089
1.08604
1.06243
1.03808
1.01305
0.987469
0.961518
0.935431
0.909461
0.883863
0.858881
0.83471
0.811481
0.789271
0.768129
0.747916
0.728662
0.710258
0.692603
0.675605
0.659171
0.643215
0.627657
0.612434
0.597489
0.582776
0.56825
0.553874
0.539617
0.525458
0.511378
0.49736
0.48339
0.469453
0.45554
0.441642
0.427756
0.413875
0.399996
0.386114
0.372224
0.358326
0.344418
0.3305
0.316569
0.302625
0.288666
0.274692
0.260702
0.246699
0.232682
0.218653
0.204612
0.190559
0.176493
0.162416
0.148328
0.134231
0.120126
0.106013
0.091893
0.077768
0.0636382
0.049503
0.0353674
0.0212259
0.0070746
1.56624
1.43619
1.43396
1.45407
1.44871
1.43457
1.4204
1.40566
1.39003
1.37375
1.357
1.33992
1.32257
1.30501
1.28724
1.26927
1.25106
1.23258
1.21375
1.19452
1.17478
1.15443
1.13337
1.11149
1.08869
1.06491
1.04016
1.01448
0.988031
0.961043
0.933823
0.90671
0.880046
0.854144
0.829253
0.805528
0.783046
0.761828
0.741756
0.722748
0.704677
0.687414
0.67084
0.654842
0.639316
0.624172
0.60934
0.594761
0.580383
0.566161
0.552059
0.538049
0.524112
0.510228
0.496384
0.482567
0.468765
0.454969
0.441174
0.427377
0.413574
0.399761
0.385936
0.372096
0.35824
0.344367
0.330478
0.316572
0.302648
0.288705
0.274743
0.260763
0.246767
0.232755
0.21873
0.20469
0.190636
0.176568
0.162488
0.148398
0.134297
0.120187
0.106068
0.0919421
0.0778106
0.0636737
0.0495306
0.0353871
0.0212377
0.00707831
1.54366
1.41401
1.41269
1.43404
1.43019
1.41771
1.40526
1.39224
1.37828
1.36359
1.34835
1.33267
1.31664
1.30031
1.2837
1.26681
1.24962
1.2321
1.21417
1.19577
1.17678
1.15709
1.13654
1.115
1.09232
1.06838
1.04315
1.01667
0.989115
0.960786
0.932093
0.903498
0.875462
0.848403
0.822637
0.798342
0.77558
0.75439
0.734546
0.715904
0.698293
0.681544
0.665506
0.650041
0.635031
0.620376
0.605997
0.591832
0.57783
0.563948
0.550149
0.536409
0.522711
0.509039
0.495382
0.481728
0.468068
0.454397
0.44071
0.427006
0.413283
0.39954
0.385774
0.371984
0.35817
0.344333
0.330473
0.316592
0.302688
0.28876
0.27481
0.26084
0.246851
0.232844
0.218821
0.204781
0.190726
0.176656
0.162573
0.148478
0.134372
0.120256
0.10613
0.0919976
0.0778585
0.0637129
0.0495608
0.0354087
0.0212507
0.00708258
1.52366
1.39432
1.39368
1.41601
1.41337
1.40226
1.39127
1.37973
1.36724
1.35399
1.34013
1.32578
1.31102
1.2959
1.28044
1.26466
1.24853
1.23202
1.21508
1.19761
1.1795
1.1606
1.14072
1.11967
1.09722
1.07316
1.04739
1.01992
0.990952
0.960875
0.930248
0.89971
0.8699
0.841384
0.814569
0.789652
0.766604
0.745618
0.726155
0.708044
0.691055
0.674971
0.659603
0.644789
0.630391
0.616301
0.602439
0.588741
0.575157
0.561646
0.548177
0.534728
0.521285
0.507837
0.494376
0.480893
0.467383
0.453839
0.440262
0.426654
0.413013
0.399341
0.385635
0.371895
0.358123
0.344321
0.330491
0.316633
0.302748
0.288835
0.274897
0.260936
0.246953
0.23295
0.218928
0.204888
0.190831
0.176758
0.16267
0.14857
0.134457
0.120333
0.106201
0.0920597
0.0779113
0.0637559
0.0495941
0.0354328
0.0212655
0.00708753
1.50584
1.37674
1.37665
1.39976
1.39811
1.38814
1.37838
1.36813
1.35695
1.34499
1.33241
1.31931
1.30576
1.29182
1.27751
1.26285
1.24782
1.23239
1.21652
1.2001
1.18302
1.1651
1.14611
1.12577
1.10372
1.07965
1.05332
1.02466
0.993874
0.961491
0.928289
0.895174
0.863047
0.832689
0.804639
0.779147
0.756266
0.735362
0.716441
0.699078
0.682925
0.667695
0.653155
0.639119
0.625438
0.611998
0.598717
0.585536
0.572408
0.559299
0.546182
0.53304
0.519864
0.50665
0.493392
0.480084
0.466724
0.453311
0.439847
0.426334
0.412776
0.399173
0.385526
0.371836
0.358107
0.344339
0.330537
0.316701
0.302833
0.288935
0.275008
0.261055
0.247076
0.233076
0.219054
0.205012
0.190952
0.176874
0.16278
0.148673
0.134552
0.120421
0.106279
0.0921282
0.0779693
0.0638034
0.0496313
0.03546
0.0212822
0.0070931
1.48989
1.36098
1.36133
1.38509
1.38426
1.37525
1.36655
1.35742
1.3474
1.33662
1.32522
1.31329
1.30091
1.28811
1.27494
1.26141
1.24751
1.23322
1.2185
1.20327
1.1874
1.1707
1.15288
1.13358
1.11228
1.08843
1.06158
1.03149
0.998362
0.96289
0.926206
0.889624
0.85443
0.821726
0.79222
0.766135
0.74336
0.723196
0.705223
0.688935
0.673891
0.659738
0.646208
0.633094
0.62024
0.607532
0.594895
0.582276
0.569638
0.556954
0.544206
0.531384
0.518485
0.505509
0.492456
0.479324
0.466116
0.452833
0.43948
0.426061
0.412583
0.399049
0.385459
0.371818
0.358128
0.344392
0.330615
0.3168
0.302949
0.289064
0.275146
0.261198
0.247222
0.233222
0.2192
0.205155
0.191089
0.177005
0.162904
0.148789
0.134659
0.120518
0.106366
0.0922038
0.0780336
0.0638563
0.049673
0.0354903
0.0213006
0.00709916
1.47557
1.34682
1.34753
1.37182
1.37169
1.3635
1.35571
1.34757
1.33858
1.32887
1.31856
1.30774
1.29646
1.28478
1.27273
1.26033
1.24759
1.23449
1.22101
1.20709
1.19263
1.17744
1.1612
1.14344
1.12342
1.10025
1.07308
1.04134
1.00514
0.965438
0.923949
0.882627
0.843315
0.80762
0.776496
0.750047
0.727923
0.708946
0.692398
0.677597
0.663994
0.651178
0.638853
0.626807
0.614887
0.60299
0.591051
0.579032
0.56691
0.554669
0.542301
0.529804
0.517183
0.504445
0.491596
0.47864
0.46558
0.452422
0.439176
0.425848
0.412448
0.398979
0.385445
0.371848
0.358193
0.344486
0.330733
0.316936
0.303099
0.289224
0.275312
0.261368
0.247394
0.233393
0.219366
0.205316
0.191244
0.177152
0.163043
0.148918
0.134778
0.120625
0.106461
0.0922873
0.0781046
0.0639149
0.0497189
0.0355233
0.0213204
0.00710572
1.46266
1.33405
1.33507
1.35981
1.36026
1.35277
1.34578
1.33851
1.33046
1.32172
1.31242
1.30263
1.29241
1.28182
1.27087
1.25961
1.24803
1.23615
1.22397
1.21148
1.19862
1.18527
1.17111
1.1556
1.13775
1.11613
1.08916
1.05562
1.01535
0.969697
0.921417
0.873493
0.828533
0.789007
0.756285
0.730449
0.70947
0.692394
0.677926
0.665132
0.653355
0.642151
0.63123
0.620391
0.609501
0.598479
0.587282
0.575891
0.564299
0.552507
0.540519
0.528345
0.515999
0.503495
0.490843
0.478054
0.465136
0.452098
0.438953
0.425712
0.412385
0.398975
0.385489
0.371933
0.35831
0.34463
0.330896
0.317114
0.303288
0.289419
0.275512
0.261568
0.247593
0.233587
0.219555
0.205497
0.191417
0.177317
0.163198
0.149061
0.134909
0.120744
0.106566
0.092379
0.0781825
0.0639789
0.0497689
0.0355591
0.0213419
0.00711291
1.45101
1.32251
1.32379
1.34892
1.34987
1.34299
1.3367
1.3302
1.32298
1.31514
1.30677
1.29796
1.28875
1.2792
1.26934
1.25919
1.24877
1.2381
1.22724
1.21623
1.20513
1.19394
1.18249
1.17018
1.15598
1.13747
1.1118
1.07651
1.03109
0.977175
0.919183
0.861846
0.808687
0.763952
0.729559
0.705314
0.687266
0.673353
0.661876
0.651718
0.64219
0.632881
0.623543
0.614027
0.60424
0.594135
0.5837
0.572944
0.561882
0.550533
0.538918
0.527058
0.514975
0.502691
0.490225
0.477593
0.464807
0.451881
0.43883
0.425667
0.412402
0.399046
0.385604
0.372082
0.358487
0.344827
0.331108
0.317337
0.303518
0.289654
0.275747
0.261801
0.24782
0.233808
0.219768
0.205701
0.191612
0.177501
0.163369
0.149219
0.135053
0.120873
0.106682
0.0924791
0.0782674
0.0640485
0.0498233
0.0355981
0.0213655
0.00712085
1.44047
1.31207
1.31357
1.33903
1.34041
1.33406
1.32838
1.32257
1.3161
1.30906
1.30156
1.29367
1.28544
1.2769
1.2681
1.25904
1.24974
1.24025
1.23065
1.22106
1.21174
1.20294
1.19483
1.18716
1.17872
1.16628
1.14431
1.10673
1.05317
0.98868
0.917524
0.846813
0.78209
0.730772
0.696005
0.674336
0.661075
0.651926
0.644535
0.637705
0.630847
0.623677
0.616062
0.607941
0.599289
0.59011
0.580432
0.570297
0.559748
0.548823
0.537559
0.52599
0.51415
0.502069
0.489774
0.477284
0.464617
0.451789
0.438819
0.425723
0.412514
0.399203
0.385797
0.372302
0.358728
0.345083
0.331375
0.317611
0.303795
0.28993
0.276019
0.262067
0.248079
0.234057
0.220006
0.205929
0.191827
0.177702
0.163556
0.149392
0.13521
0.121015
0.106807
0.092588
0.0783598
0.0641245
0.0498829
0.035641
0.0213914
0.00712955
1.43093
1.30261
1.3043
1.33004
1.33179
1.3259
1.32075
1.31554
1.30975
1.30345
1.29675
1.28973
1.28242
1.27487
1.2671
1.25911
1.25091
1.24251
1.23401
1.22561
1.21779
1.21125
1.20685
1.2052
1.2057
1.20547
1.19335
1.15238
1.05947
0.928881
0.821069
0.738649
0.673552
0.646352
0.642199
0.634534
0.630824
0.628686
0.626514
0.62364
0.619798
0.614942
0.609119
0.602403
0.594866
0.58658
0.57762
0.568065
0.557986
0.547446
0.536498
0.52519
0.513565
0.501664
0.489517
0.477149
0.464583
0.451838
0.438936
0.425896
0.412731
0.399455
0.386075
0.3726
0.359039
0.345403
0.3317
0.317938
0.304119
0.290249
0.276331
0.26237
0.248371
0.234337
0.220273
0.206181
0.192064
0.177924
0.163762
0.14958
0.135382
0.121169
0.106943
0.0927063
0.0784604
0.0642075
0.0499479
0.0356875
0.0214192
0.00713887
1.42227
1.29404
1.29588
1.32186
1.32393
1.31842
1.31374
1.30906
1.30386
1.29823
1.29227
1.28606
1.27964
1.27305
1.26632
1.2594
1.25227
1.24487
1.23722
1.22954
1.22248
1.21737
1.21628
1.22144
1.23319
1.24792
1.25445
1.25292
1.26506
1.26854
1.17025
1.02899
0.850655
0.677878
0.601246
0.591717
0.59922
0.605359
0.608962
0.610321
0.609642
0.607148
0.603092
0.597715
0.591209
0.583729
0.575405
0.566356
0.556683
0.546472
0.535792
0.524704
0.51326
0.501505
0.489478
0.477209
0.464723
0.452044
0.439195
0.426195
0.413062
0.399808
0.386445
0.372981
0.359427
0.345793
0.332089
0.318321
0.304495
0.290614
0.276685
0.262711
0.248697
0.234648
0.220567
0.206459
0.192324
0.178166
0.163985
0.149785
0.135568
0.121336
0.107091
0.0928344
0.0785696
0.0642974
0.0500179
0.0357373
0.0214488
0.00714873
1.41443
1.28625
1.28823
1.31441
1.31675
1.31157
1.30728
1.30306
1.29838
1.29334
1.28805
1.28259
1.27702
1.27139
1.26571
1.25991
1.25389
1.24745
1.24042
1.23277
1.22506
1.21911
1.21917
1.23286
1.27101
1.3397
1.41186
1.37782
0.843225
-0.0822637
-0.643499
-0.583209
-0.100167
0.412086
0.54183
0.556176
0.574053
0.585128
0.593366
0.598667
0.601048
0.600822
0.598396
0.594194
0.588556
0.581735
0.573921
0.565274
0.55592
0.545966
0.535493
0.524573
0.513264
0.501619
0.489681
0.477484
0.465055
0.452421
0.439605
0.42663
0.413514
0.400271
0.386914
0.373451
0.359895
0.346255
0.332542
0.318762
0.304923
0.291027
0.277082
0.263091
0.249059
0.234991
0.220891
0.206762
0.192608
0.178429
0.164228
0.150007
0.135769
0.121516
0.107249
0.0929727
0.078687
0.0643935
0.0500923
0.0357898
0.02148
0.00715914
1.40733
1.2792
1.28129
1.30763
1.31018
1.30528
1.3013
1.29746
1.29322
1.28869
1.28399
1.27922
1.27446
1.26979
1.26521
1.26065
1.25593
1.25064
1.2442
1.23596
1.22562
1.21437
1.20731
1.21806
1.2707
1.35011
0.783739
-1.61706
-5.11157
-7.85538
-9.19711
-8.43175
-6.44538
-3.24349
-0.656921
0.337825
0.52726
0.566812
0.579851
0.589081
0.594607
0.596514
0.595462
0.592159
0.58714
0.580767
0.573293
0.56491
0.555766
0.545978
0.53564
0.524827
0.513605
0.50203
0.490146
0.477989
0.465591
0.452978
0.440175
0.427208
0.414094
0.40085
0.387487
0.374015
0.360447
0.346792
0.333062
0.319264
0.305405
0.29149
0.277524
0.263511
0.249457
0.235366
0.221244
0.207093
0.192915
0.178713
0.164489
0.150245
0.135984
0.121709
0.10742
0.0931205
0.0788121
0.0644954
0.0501708
0.0358452
0.0215131
0.00717023
1.40091
1.27283
1.275
1.30146
1.30418
1.29948
1.29576
1.29222
1.28832
1.2842
1.28
1.27583
1.27182
1.26808
1.26468
1.26158
1.25855
1.25501
1.24983
1.24118
1.22671
1.20436
1.17618
1.15745
1.12594
-0.0671659
-4.60675
-10.639
-14.3745
-15.7658
-16.4238
-16.137
-14.9505
-10.934
-5.14764
-0.880383
0.389435
0.543021
0.572199
0.583388
0.591381
0.594968
0.594777
0.59192
0.587159
0.580957
0.57361
0.565327
0.556265
0.546545
0.536262
0.525493
0.514304
0.502752
0.490883
0.478735
0.466338
0.453722
0.440913
0.427935
0.414809
0.401548
0.388166
0.374674
0.361083
0.347406
0.333651
0.319829
0.305944
0.292003
0.27801
0.263972
0.249892
0.235776
0.221628
0.207451
0.193247
0.179019
0.164769
0.150501
0.136215
0.121915
0.107602
0.0932777
0.0789444
0.0646029
0.0502538
0.035904
0.0215483
0.00718211
1.39513
1.26709
1.26932
1.29587
1.29871
1.29415
1.2906
1.28726
1.28362
1.2798
1.27596
1.27227
1.2689
1.26603
1.26385
1.26244
1.26172
1.26112
1.25913
1.25243
1.23523
1.19841
1.1341
0.991263
-0.408455
-6.05086
-13.4333
-16.0093
-16.3961
-15.7086
-14.8262
-15.4923
-16.5553
-16.7755
-11.3774
-3.91869
-0.00773407
0.499024
0.576944
0.585698
0.593145
0.597083
0.596799
0.593703
0.588729
0.582367
0.574909
0.566552
0.55744
0.547685
0.537374
0.526581
0.51537
0.503794
0.491901
0.479727
0.467304
0.454661
0.441824
0.428817
0.415659
0.402367
0.388953
0.375429
0.361806
0.348097
0.334311
0.320455
0.306538
0.292566
0.278542
0.264473
0.250364
0.236218
0.222041
0.207834
0.193602
0.179345
0.165069
0.150773
0.136461
0.122134
0.107794
0.0934439
0.0790843
0.0647166
0.0503417
0.0359666
0.0215859
0.00719482
1.38998
1.26195
1.26422
1.29082
1.29373
1.28925
1.2858
1.28257
1.27905
1.2754
1.27178
1.26839
1.26546
1.26329
1.26222
1.26262
1.26481
1.26877
1.27345
1.27506
1.26372
1.21277
1.04293
-0.188873
-6.09733
-14.2389
-16.1602
-15.3995
-12.0016
-8.13844
-6.00445
-6.71179
-11.5788
-16.5118
-15.9724
-7.91043
-0.943616
0.432412
0.59171
0.596783
0.601011
0.603334
0.601662
0.597512
0.591816
0.584964
0.577168
0.56857
0.559282
0.549392
0.538974
0.528092
0.516803
0.505158
0.493201
0.480969
0.468491
0.455795
0.442907
0.429851
0.416646
0.403307
0.389848
0.376281
0.362616
0.348865
0.335039
0.321144
0.307189
0.293179
0.27912
0.265016
0.250872
0.236693
0.222483
0.208244
0.19398
0.179694
0.165387
0.151063
0.136721
0.122366
0.107998
0.0936194
0.079232
0.0648368
0.050435
0.0360332
0.0216259
0.0072083
1.38543
1.25741
1.25969
1.28631
1.28923
1.28477
1.28133
1.27811
1.2746
1.27095
1.26735
1.26402
1.26125
1.25942
1.25908
1.26096
1.26612
1.27584
1.29143
1.31237
1.33761
1.31767
0.40645
-5.23412
-13.9995
-16.224
-14.8712
-10.2518
-5.33567
-2.08158
-1.48649
-1.89073
-5.45434
-14.8665
-16.6709
-10.0594
-1.55931
0.496235
0.656954
0.633522
0.618594
0.613936
0.609025
0.603028
0.596196
0.588601
0.58029
0.57132
0.561751
0.551641
0.541045
0.530013
0.518595
0.506838
0.49478
0.482457
0.469895
0.457121
0.44416
0.431036
0.417766
0.404367
0.39085
0.377228
0.363511
0.34971
0.335834
0.321894
0.307895
0.293842
0.279742
0.265598
0.251416
0.2372
0.222953
0.208679
0.194382
0.180063
0.165725
0.151368
0.136996
0.12261
0.108212
0.093804
0.0793874
0.0649635
0.0505334
0.0361033
0.021668
0.00722245
1.38147
1.25346
1.25573
1.28233
1.28521
1.28071
1.2772
1.27388
1.27025
1.26644
1.26264
1.25908
1.25607
1.25403
1.25364
1.25595
1.26269
1.27685
1.3038
1.35283
1.45443
1.13333
-3.59835
-13.1216
-16.4689
-15.1331
-10.0072
-5.15643
-2.32896
-1.70905
-1.73384
-1.96579
-4.65331
-13.8857
-16.6147
-11.1541
-1.92067
0.503212
0.673912
0.650544
0.632543
0.624555
0.61715
0.609443
0.601445
0.593033
0.584126
0.574705
0.564784
0.554389
0.543557
0.532324
0.520733
0.508823
0.496629
0.484183
0.471509
0.458634
0.44558
0.432368
0.419019
0.405544
0.391956
0.378267
0.364488
0.350628
0.336697
0.322704
0.308654
0.294554
0.280407
0.266219
0.251994
0.237737
0.223451
0.209139
0.194806
0.180452
0.166079
0.151689
0.137283
0.122865
0.108436
0.0939971
0.07955
0.065096
0.0506362
0.0361765
0.0217118
0.00723718
1.37812
1.2501
1.25234
1.27889
1.2817
1.27709
1.27343
1.26993
1.26605
1.26191
1.25769
1.25358
1.24986
1.24694
1.24543
1.2464
1.25167
1.2647
1.29142
1.35183
1.44579
-1.4102
-10.8403
-16.1941
-15.6307
-10.3121
-5.28724
-2.70187
-2.10107
-1.90256
-1.86204
-1.99453
-6.10546
-14.5097
-16.014
-10.1202
-1.41098
0.555214
0.695489
0.663586
0.644322
0.634389
0.625223
0.616194
0.607206
0.598032
0.588529
0.578629
0.568314
0.557589
0.546475
0.534999
0.523194
0.511095
0.498733
0.486135
0.473325
0.460326
0.447159
0.433844
0.420397
0.406833
0.393162
0.379396
0.365545
0.351618
0.337625
0.323572
0.309465
0.295311
0.281112
0.266876
0.252605
0.238303
0.223975
0.209623
0.19525
0.180859
0.166449
0.152023
0.137583
0.123132
0.108669
0.094198
0.079719
0.0652337
0.050743
0.0362525
0.0217573
0.00725244
1.3754
1.24736
1.24955
1.27602
1.27872
1.27395
1.27008
1.26631
1.26207
1.25746
1.25262
1.24768
1.24284
1.23836
1.23465
1.23236
1.23265
1.23761
1.25024
1.30084
0.780479
-6.62157
-14.2191
-15.8252
-11.173
-5.51242
-2.54761
-2.10205
-2.02267
-2.02914
-2.04196
-3.59396
-9.74649
-15.7374
-15.6164
-7.74445
-0.439143
0.630193
0.707029
0.672883
0.654565
0.643293
0.632918
0.622976
0.613235
0.603421
0.59337
0.582998
0.572273
0.56119
0.54976
0.538004
0.525953
0.513634
0.501076
0.488301
0.475332
0.462188
0.448888
0.435452
0.421894
0.408227
0.394462
0.38061
0.366678
0.352676
0.338612
0.324493
0.310324
0.29611
0.281857
0.267568
0.253247
0.238898
0.224524
0.210129
0.195715
0.181283
0.166834
0.152371
0.137895
0.123408
0.108911
0.0944058
0.0798937
0.065376
0.0508534
0.0363311
0.0218044
0.00726823
1.37334
1.24527
1.24739
1.27376
1.27631
1.27134
1.26722
1.2631
1.25842
1.25324
1.24763
1.24167
1.23543
1.22898
1.22237
1.21562
1.20878
1.20071
1.19543
1.21608
-1.03941
-10.4876
-14.7104
-13.5303
-6.73799
-2.33789
-1.66757
-1.81164
-1.98572
-2.19634
-3.0382
-7.18838
-13.7177
-16.7262
-13.7278
-4.07425
0.374656
0.718407
0.712442
0.679897
0.663026
0.650974
0.640044
0.629643
0.619415
0.609106
0.598573
0.587749
0.576607
0.565145
0.553372
0.54131
0.528983
0.516418
0.503637
0.490663
0.477512
0.464204
0.450756
0.437183
0.423501
0.40972
0.395851
0.381902
0.367881
0.353796
0.339655
0.325464
0.311227
0.29695
0.282637
0.268292
0.253918
0.239518
0.225096
0.210655
0.196197
0.181722
0.167233
0.152731
0.138217
0.123693
0.10916
0.0946198
0.0800736
0.0655226
0.0509671
0.036412
0.0218529
0.00728448
1.37196
1.24386
1.24591
1.27215
1.27453
1.26933
1.26491
1.26041
1.25524
1.24946
1.243
1.23594
1.22823
1.21974
1.21021
1.1991
1.18567
1.1648
1.14984
1.05983
-2.73581
-12.2345
-14.5098
-11.1729
-3.60592
-1.40353
-1.45567
-1.68517
-1.98469
-2.70743
-5.8991
-11.8585
-16.7048
-16.6185
-8.81785
-0.854284
0.631172
0.734436
0.702069
0.680649
0.667989
0.657049
0.646561
0.636196
0.625737
0.61506
0.604102
0.592841
0.581276
0.569417
0.557279
0.544885
0.532258
0.519421
0.506396
0.4932
0.479849
0.46636
0.452747
0.439026
0.425208
0.411303
0.397319
0.383265
0.369147
0.354973
0.340748
0.326479
0.31217
0.297826
0.28345
0.269045
0.254614
0.240161
0.225688
0.211199
0.196695
0.182176
0.167645
0.153102
0.138548
0.123986
0.109416
0.0948393
0.0802582
0.065673
0.0510837
0.036495
0.0219026
0.00730115
1.37131
1.24317
1.24514
1.27125
1.27344
1.26799
1.26324
1.25833
1.25264
1.24615
1.23896
1.23089
1.22183
1.21155
1.19964
1.18534
1.16786
1.14079
1.12971
0.955717
-3.255
-12.9487
-14.4292
-9.71477
-2.52708
-1.44265
-1.40356
-1.51393
-1.97607
-4.66965
-10.6226
-16.6149
-17.7725
-12.3301
-2.945
0.349
0.676509
0.69286
0.683953
0.677981
0.670906
0.66239
0.652967
0.642905
0.632335
0.621338
0.609965
0.598259
0.586253
0.573975
0.561448
0.548697
0.535746
0.522616
0.509326
0.49589
0.482323
0.468639
0.45485
0.440968
0.427004
0.412965
0.398858
0.384691
0.370469
0.356199
0.341886
0.327535
0.31315
0.298735
0.284292
0.269824
0.255334
0.240825
0.226299
0.21176
0.197207
0.182643
0.168067
0.153482
0.138887
0.124285
0.109677
0.0950638
0.080447
0.0658268
0.0512028
0.0365797
0.0219533
0.00731815
1.37144
1.24326
1.24513
1.2711
1.27309
1.26739
1.26232
1.25701
1.25083
1.24377
1.23582
1.22685
1.21668
1.20504
1.19148
1.17532
1.15611
1.12995
1.11692
1.02424
-2.78937
-12.6548
-14.8928
-10.3408
-3.19953
-1.7895
-1.41524
-1.2533
-2.85304
-8.7075
-15.8149
-18.8478
-15.1562
-5.41426
-0.332826
0.478533
0.627254
0.655422
0.672372
0.677362
0.674987
0.668661
0.660107
0.650203
0.639423
0.628034
0.616193
0.603999
0.591516
0.578787
0.565844
0.552712
0.539416
0.525974
0.512402
0.498712
0.484915
0.471023
0.457047
0.442994
0.428875
0.414694
0.400458
0.386172
0.371841
0.357469
0.343063
0.328625
0.31416
0.299671
0.285158
0.270625
0.256073
0.241506
0.226926
0.212334
0.197731
0.183119
0.168498
0.153869
0.139233
0.12459
0.109943
0.0952926
0.0806394
0.0659833
0.0513239
0.0366658
0.0220049
0.00733542
1.3724
1.24416
1.24594
1.27176
1.27355
1.26759
1.2622
1.25651
1.24988
1.24229
1.23371
1.22401
1.21303
1.20048
1.18596
1.16891
1.14888
1.12513
1.1083
1.14666
-1.36214
-10.1494
-14.8971
-12.0217
-5.12259
-2.20718
-1.19358
-1.88285
-6.81322
-14.2589
-19.0466
-17.4231
-7.9438
-1.10703
0.240012
0.521621
0.613192
0.656231
0.677632
0.684605
0.683324
0.677394
0.668753
0.658481
0.647189
0.635227
0.622804
0.610047
0.597036
0.583818
0.57043
0.556895
0.543234
0.529464
0.515596
0.501639
0.487602
0.473493
0.45932
0.44509
0.430808
0.416479
0.402108
0.387697
0.373252
0.358775
0.344271
0.329744
0.315196
0.300629
0.286044
0.271443
0.256828
0.242201
0.227564
0.212918
0.198264
0.183604
0.168936
0.154263
0.139584
0.1249
0.110214
0.0955251
0.0808345
0.0661418
0.0514465
0.0367529
0.0220571
0.00735289
1.37422
1.24594
1.24762
1.27329
1.27487
1.26865
1.26296
1.2569
1.24986
1.24181
1.23272
1.22248
1.21096
1.19792
1.18304
1.16581
1.14533
1.11918
1.07658
1.02907
-0.0152495
-6.86266
-13.5812
-14.2314
-10.3882
-6.24037
-5.03055
-7.93652
-13.3538
-17.714
-17.6232
-11.0387
-1.99591
0.202558
0.50251
0.600632
0.655054
0.685092
0.698028
0.700483
0.696675
0.689085
0.679193
0.667885
0.65569
0.642923
0.629776
0.616368
0.602769
0.589025
0.575163
0.561205
0.547165
0.533054
0.51888
0.504647
0.490362
0.476029
0.461653
0.447238
0.432789
0.418307
0.403796
0.389257
0.374694
0.360109
0.345504
0.330885
0.316251
0.301604
0.286945
0.272275
0.257595
0.242907
0.228212
0.213511
0.198805
0.184094
0.16938
0.154661
0.139939
0.125214
0.110488
0.0957603
0.0810318
0.0663018
0.0515701
0.0368408
0.0221097
0.00737051
1.37697
1.24864
1.25021
1.27573
1.27711
1.27063
1.26464
1.25825
1.25083
1.24238
1.23288
1.22226
1.21042
1.19721
1.18247
1.16598
1.14753
1.12756
1.10649
1.11099
0.948882
-2.27302
-9.41717
-14.191
-14.4782
-14.1762
-14.0022
-15.2312
-15.9633
-16.4506
-12.6958
-3.5619
0.543864
0.750138
0.731949
0.723787
0.728835
0.731305
0.729037
0.722952
0.714074
0.703264
0.691176
0.678261
0.664816
0.651032
0.637031
0.622891
0.608655
0.594351
0.579995
0.565599
0.551169
0.536709
0.522222
0.507708
0.493169
0.478608
0.464025
0.449423
0.434802
0.420165
0.405511
0.390841
0.376157
0.361461
0.346755
0.332041
0.31732
0.302592
0.287857
0.273116
0.25837
0.243619
0.228865
0.214108
0.199349
0.184589
0.169827
0.155063
0.140297
0.125531
0.110764
0.0959973
0.0812302
0.0664627
0.0516945
0.0369292
0.0221627
0.0073882
1.3807
1.25231
1.25378
1.27913
1.28031
1.27358
1.26729
1.26057
1.25281
1.244
1.23416
1.22326
1.21123
1.19803
1.18363
1.16808
1.15157
1.13475
1.11802
1.1005
1.07616
0.323347