/*--------------------------------*- C++ -*----------------------------------*\
| =========                 |                                                 |
| \\      /  F ield         | OpenFOAM: The Open Source CFD Toolbox           |
|  \\    /   O peration     | Version:  v1806                                 |
|   \\  /    A nd           | Web:      www.OpenFOAM.com                      |
|    \\/     M anipulation  |                                                 |
\*---------------------------------------------------------------------------*/
FoamFile
{
    version     2.0;
    format      ascii;
    class       surfaceScalarField;
    location    "0.02";
    object      phi;
}
// * * * * * * * * * * * * * * * * * * * * * * * * * * * * * * * * * * * * * //

dimensions      [0 3 -1 0 0 0 0];
oriented        oriented;


internalField   nonuniform List<scalar> 
10650
(
0.00300048
0.000332855
0.00276082
0.000239658
0.00263385
0.000126968
0.00256874
6.51129e-05
0.00253223
3.65058e-05
0.00250941
2.28249e-05
0.00249406
1.53472e-05
0.0024831
1.09611e-05
0.00247488
8.22291e-06
0.00246849
6.38753e-06
0.0024634
5.09212e-06
0.00245927
4.12929e-06
0.00245587
3.3937e-06
0.00245306
2.81724e-06
0.00245072
2.34192e-06
0.00244876
1.95487e-06
0.00244714
1.62449e-06
0.0024458
1.33224e-06
0.00244472
1.08356e-06
0.00244386
8.57061e-07
0.00244322
6.48358e-07
0.00244275
4.67939e-07
0.00244244
3.03417e-07
0.00244229
1.50726e-07
0.00244227
2.11738e-08
0.00244236
-8.7666e-08
0.00244254
-1.79938e-07
0.00244279
-2.4895e-07
0.00244308
-2.94836e-07
0.00244341
-3.23053e-07
0.00244374
-3.30792e-07
0.00244405
-3.13052e-07
0.00244433
-2.79396e-07
0.00244457
-2.38623e-07
0.00244475
-1.85908e-07
0.00244488
-1.21514e-07
0.00244493
-5.17125e-08
0.00244491
1.26501e-08
0.00244484
7.03194e-08
0.00244472
1.2656e-07
0.00244454
1.81162e-07
0.00244431
2.25583e-07
0.00244405
2.57702e-07
0.00244377
2.7924e-07
0.00244348
2.96538e-07
0.00244317
3.10962e-07
0.00244285
3.17732e-07
0.00244253
3.16161e-07
0.00244223
3.06932e-07
0.00244193
2.95552e-07
0.00244164
2.84905e-07
0.00244137
2.74327e-07
0.00244111
2.60013e-07
0.00244087
2.43072e-07
0.00244064
2.23892e-07
0.00244044
2.05492e-07
0.00244025
1.89302e-07
0.00244007
1.75547e-07
0.00243991
1.62459e-07
0.00243976
1.48255e-07
0.00243963
1.33371e-07
0.00243951
1.18714e-07
0.0024394
1.06014e-07
0.00243931
9.57735e-08
0.00243922
8.7528e-08
0.00243914
7.99231e-08
0.00243907
7.14753e-08
0.00243901
6.32222e-08
0.00243895
5.50866e-08
0.0024389
4.79656e-08
0.00243886
4.21583e-08
0.00243882
3.75714e-08
0.00243879
3.39924e-08
0.00243876
3.08188e-08
0.00243873
2.75481e-08
0.00243871
2.40288e-08
0.00243869
2.04363e-08
0.00243867
1.6969e-08
0.00243866
1.402e-08
0.00243864
1.18159e-08
0.00243863
1.03937e-08
0.00243862
9.48085e-09
0.00243862
8.65258e-09
0.00243861
7.44064e-09
0.0024386
6.38678e-09
0.0024386
5.65258e-09
0.00243859
6.66236e-09
0.00243858
8.02554e-09
0.00243855
3.45953e-08
3.76302e-08
0.00343728
0.00022891
0.00345434
0.000222593
0.00343306
0.000148252
0.00340439
9.3782e-05
0.00337968
6.1217e-05
0.0033605
4.20067e-05
0.00334576
3.0086e-05
0.00333436
2.23596e-05
0.00332542
1.71637e-05
0.00331829
1.35168e-05
0.00331251
1.0867e-05
0.00330777
8.87291e-06
0.00330384
7.32241e-06
0.00330056
6.09865e-06
0.00329781
5.0937e-06
0.00329551
4.25496e-06
0.00329359
3.5459e-06
0.003292
2.92135e-06
0.00329071
2.36967e-06
0.00328969
1.87858e-06
0.00328891
1.4337e-06
0.00328834
1.03068e-06
0.00328798
6.62396e-07
0.0032878
3.33948e-07
0.00328778
4.11271e-08
0.00328789
-1.98227e-07
0.00328812
-4.05479e-07
0.00328843
-5.64885e-07
0.00328881
-6.70946e-07
0.00328922
-7.30008e-07
0.00328963
-7.47134e-07
0.00329004
-7.22252e-07
0.00329041
-6.52149e-07
0.00329073
-5.52835e-07
0.00329097
-4.32359e-07
0.00329115
-2.9486e-07
0.00329125
-1.49634e-07
0.00329126
-3.95871e-09
0.0032912
1.34831e-07
0.00329106
2.63557e-07
0.00329086
3.77183e-07
0.00329062
4.70332e-07
0.00329033
5.46534e-07
0.00329001
6.03618e-07
0.00328966
6.4607e-07
0.0032893
6.71797e-07
0.00328893
6.8373e-07
0.00328856
6.82254e-07
0.0032882
6.69194e-07
0.00328785
6.48091e-07
0.00328751
6.23181e-07
0.00328719
5.9604e-07
0.00328688
5.64444e-07
0.0032866
5.29323e-07
0.00328633
4.90068e-07
0.00328609
4.51812e-07
0.00328586
4.17134e-07
0.00328565
3.85387e-07
0.00328546
3.53595e-07
0.00328528
3.22586e-07
0.00328512
2.91804e-07
0.00328498
2.62705e-07
0.00328485
2.36007e-07
0.00328473
2.12624e-07
0.00328463
1.91941e-07
0.00328454
1.73266e-07
0.00328445
1.55962e-07
0.00328438
1.39276e-07
0.00328431
1.22856e-07
0.00328425
1.07866e-07
0.00328419
9.48704e-08
0.00328415
8.41098e-08
0.00328411
7.51901e-08
0.00328407
6.71512e-08
0.00328404
5.96906e-08
0.00328401
5.236e-08
0.00328399
4.52364e-08
0.00328396
3.85984e-08
0.00328394
3.26895e-08
0.00328393
2.78835e-08
0.00328392
2.4049e-08
0.0032839
2.09001e-08
0.00328389
1.80939e-08
0.00328389
1.54757e-08
0.00328388
1.31786e-08
0.00328387
1.11678e-08
0.00328387
1.04971e-08
0.00328387
8.77243e-09
0.00328388
2.52675e-08
2.54421e-08
0.00340998
0.000152264
0.00345212
0.000180458
0.00345967
0.000140694
0.00345165
0.000101802
0.00343936
7.35073e-05
0.00342731
5.40639e-05
0.00341671
4.06866e-05
0.00340775
3.1316e-05
0.00340029
2.46279e-05
0.00339407
1.97311e-05
0.00338889
1.60531e-05
0.00338453
1.32311e-05
0.00338085
1.09957e-05
0.00337775
9.19864e-06
0.00337513
7.72284e-06
0.00337291
6.47181e-06
0.00337105
5.39989e-06
0.00336951
4.46156e-06
0.00336826
3.62665e-06
0.00336726
2.87586e-06
0.00336651
2.1871e-06
0.00336597
1.56272e-06
0.00336564
1.00005e-06
0.00336548
4.88455e-07
0.00336549
2.94433e-08
0.00336565
-3.58112e-07
0.00336592
-6.73651e-07
0.00336628
-9.20112e-07
0.0033667
-1.09715e-06
0.00336717
-1.19296e-06
0.00336763
-1.21417e-06
0.00336808
-1.16635e-06
0.00336848
-1.05686e-06
0.00336883
-9.0039e-07
0.0033691
-7.0324e-07
0.00336929
-4.80874e-07
0.00336939
-2.50445e-07
0.0033694
-1.6166e-08
0.00336933
2.07314e-07
0.00336918
4.11309e-07
0.00336897
5.86236e-07
0.00336871
7.34949e-07
0.0033684
8.54679e-07
0.00336806
9.45562e-07
0.00336769
1.01004e-06
0.00336731
1.04908e-06
0.00336693
1.06677e-06
0.00336655
1.06046e-06
0.00336618
1.04032e-06
0.00336582
1.00922e-06
0.00336547
9.71718e-07
0.00336514
9.26095e-07
0.00336483
8.73288e-07
0.00336455
8.16937e-07
0.00336428
7.58462e-07
0.00336403
7.02197e-07
0.0033638
6.4799e-07
0.00336358
5.96389e-07
0.00336339
5.45657e-07
0.00336322
4.96823e-07
0.00336306
4.50141e-07
0.00336292
4.05784e-07
0.00336279
3.65552e-07
0.00336267
3.29667e-07
0.00336256
2.97511e-07
0.00336247
2.67487e-07
0.00336239
2.40098e-07
0.00336231
2.13501e-07
0.00336225
1.88888e-07
0.00336219
1.67021e-07
0.00336213
1.47753e-07
0.00336209
1.31179e-07
0.00336205
1.16629e-07
0.00336201
1.03538e-07
0.00336198
9.14369e-08
0.00336195
8.0089e-08
0.00336193
6.93557e-08
0.0033619
5.97081e-08
0.00336189
5.11793e-08
0.00336187
4.40302e-08
0.00336186
3.78824e-08
0.00336184
3.25207e-08
0.00336183
2.7575e-08
0.00336183
2.30916e-08
0.00336182
1.88321e-08
0.00336182
1.50087e-08
0.00336182
1.19472e-08
0.00336182
8.47447e-09
0.00336183
1.06604e-08
4.07724e-09
0.0033758
0.000109794
0.00341087
0.000145386
0.00342602
0.000125549
0.00342841
9.94102e-05
0.00342471
7.7209e-05
0.00341871
6.00641e-05
0.0034122
4.71921e-05
0.00340598
3.75371e-05
0.00340036
3.02517e-05
0.0033954
2.46941e-05
0.00339108
2.03724e-05
0.00338734
1.69706e-05
0.0033841
1.42349e-05
0.00338131
1.19851e-05
0.00337892
1.01098e-05
0.00337688
8.51154e-06
0.00337516
7.12727e-06
0.00337372
5.90338e-06
0.00337255
4.79575e-06
0.00337163
3.79685e-06
0.00337092
2.88933e-06
0.00337044
2.04974e-06
0.00337016
1.27389e-06
0.00337007
5.76872e-07
0.00337015
-4.50489e-08
0.00337036
-5.73965e-07
0.0033707
-1.01439e-06
0.00337114
-1.35998e-06
0.00337164
-1.59643e-06
0.00337218
-1.72556e-06
0.00337271
-1.74841e-06
0.00337322
-1.67453e-06
0.00337368
-1.51453e-06
0.00337406
-1.28309e-06
0.00337435
-9.98083e-07
0.00337455
-6.81461e-07
0.00337465
-3.4866e-07
0.00337465
-1.77635e-08
0.00337456
2.98294e-07
0.0033744
5.79065e-07
0.00337416
8.23955e-07
0.00337386
1.02848e-06
0.00337353
1.19164e-06
0.00337316
1.31564e-06
0.00337277
1.39999e-06
0.00337237
1.44817e-06
0.00337197
1.46465e-06
0.00337158
1.45526e-06
0.00337119
1.42623e-06
0.00337082
1.38226e-06
0.00337046
1.32584e-06
0.00337013
1.25917e-06
0.00336982
1.18505e-06
0.00336953
1.10739e-06
0.00336926
1.02858e-06
0.00336901
9.5075e-07
0.00336878
8.7699e-07
0.00336857
8.04895e-07
0.00336838
7.35263e-07
0.00336821
6.68802e-07
0.00336805
6.0537e-07
0.00336791
5.46317e-07
0.00336779
4.92758e-07
0.00336767
4.44171e-07
0.00336757
3.99748e-07
0.00336748
3.58892e-07
0.0033674
3.21011e-07
0.00336733
2.85585e-07
0.00336726
2.53377e-07
0.0033672
2.24492e-07
0.00336715
1.98974e-07
0.00336711
1.76478e-07
0.00336707
1.56542e-07
0.00336703
1.38392e-07
0.003367
1.21839e-07
0.00336698
1.06662e-07
0.00336695
9.26671e-08
0.00336693
8.01294e-08
0.00336691
6.90973e-08
0.0033669
5.94357e-08
0.00336689
5.09471e-08
0.00336687
4.33222e-08
0.00336687
3.65396e-08
0.00336686
3.01393e-08
0.00336685
2.40405e-08
0.00336685
1.81881e-08
0.00336685
1.26061e-08
0.00336685
6.42207e-09
0.00336686
1.80102e-09
-7.16432e-09
0.00335825
8.48785e-05
0.00338428
0.000119356
0.00339988
0.000109951
0.00340661
9.26796e-05
0.00340777
7.60425e-05
0.00340593
6.19075e-05
0.00340266
5.04681e-05
0.00339883
4.13595e-05
0.00339496
3.41229e-05
0.00339128
2.83794e-05
0.00338788
2.37731e-05
0.00338481
2.00333e-05
0.00338209
1.69603e-05
0.00337968
1.4393e-05
0.00337757
1.22218e-05
0.00337574
1.03444e-05
0.00337418
8.68279e-06
0.00337288
7.20528e-06
0.0033718
5.8734e-06
0.00337095
4.6463e-06
0.00337033
3.50527e-06
0.00336993
2.45048e-06
0.00336973
1.48223e-06
0.00336971
5.95659e-07
0.00336987
-2.03685e-07
0.00337018
-8.87521e-07
0.00337062
-1.45813e-06
0.00337116
-1.89892e-06
0.00337177
-2.20321e-06
0.00337241
-2.36294e-06
0.00337304
-2.38127e-06
0.00337363
-2.26877e-06
0.00337416
-2.04075e-06
0.0033746
-1.71873e-06
0.00337492
-1.32803e-06
0.00337514
-8.94488e-07
0.00337523
-4.44189e-07
0.00337522
-1.78902e-09
0.0033751
4.14297e-07
0.0033749
7.83602e-07
0.00337462
1.10133e-06
0.00337428
1.36445e-06
0.0033739
1.5719e-06
0.0033735
1.7235e-06
0.00337307
1.82289e-06
0.00337265
1.87597e-06
0.00337222
1.8899e-06
0.0033718
1.87226e-06
0.0033714
1.8295e-06
0.00337101
1.76683e-06
0.00337065
1.68825e-06
0.00337031
1.59831e-06
0.00337
1.50064e-06
0.00336971
1.39958e-06
0.00336944
1.29753e-06
0.00336919
1.19904e-06
0.00336896
1.10316e-06
0.00336876
1.01009e-06
0.00336857
9.2107e-07
0.0033684
8.36437e-07
0.00336825
7.56693e-07
0.00336812
6.82998e-07
0.00336799
6.15759e-07
0.00336788
5.54451e-07
0.00336778
4.98203e-07
0.0033677
4.46246e-07
0.00336762
3.98606e-07
0.00336755
3.54723e-07
0.00336749
3.14891e-07
0.00336743
2.79282e-07
0.00336738
2.47588e-07
0.00336734
2.19462e-07
0.0033673
1.94248e-07
0.00336727
1.71406e-07
0.00336724
1.50675e-07
0.00336722
1.31855e-07
0.0033672
1.14629e-07
0.00336718
9.9377e-08
0.00336716
8.57271e-08
0.00336714
7.37114e-08
0.00336713
6.30457e-08
0.00336712
5.34727e-08
0.00336711
4.48372e-08
0.00336711
3.67477e-08
0.0033671
2.88119e-08
0.0033671
2.10593e-08
0.0033671
1.33261e-08
0.0033671
4.88445e-09
0.00336711
-3.02442e-09
-1.31519e-08
0.00334928
6.89337e-05
0.00336845
0.000100184
0.00338221
9.61932e-05
0.00339018
8.47096e-05
0.00339377
7.24513e-05
0.00339448
6.11934e-05
0.00339349
5.14596e-05
0.00339156
4.32956e-05
0.00338916
3.65187e-05
0.00338662
3.09186e-05
0.00338411
2.62813e-05
0.00338173
2.24167e-05
0.00337951
1.91786e-05
0.00337749
1.64188e-05
0.00337568
1.40245e-05
0.0033741
1.19303e-05
0.00337271
1.00705e-05
0.00337153
8.3836e-06
0.00337057
6.8305e-06
0.00336983
5.38719e-06
0.0033693
4.04015e-06
0.00336897
2.78046e-06
0.00336885
1.60278e-06
0.00336893
5.14357e-07
0.00336919
-4.657e-07
0.00336962
-1.31831e-06
0.00337019
-2.02863e-06
0.00337087
-2.57836e-06
0.00337162
-2.95298e-06
0.0033724
-3.13894e-06
0.00337316
-3.144e-06
0.00337387
-2.97743e-06
0.00337449
-2.66089e-06
0.00337499
-2.22345e-06
0.00337536
-1.6986e-06
0.00337559
-1.12304e-06
0.00337568
-5.3248e-07
0.00337564
4.02548e-08
0.00337548
5.69719e-07
0.00337523
1.0407e-06
0.00337489
1.4353e-06
0.0033745
1.75832e-06
0.00337406
2.00582e-06
0.00337361
2.18078e-06
0.00337314
2.29026e-06
0.00337267
2.34302e-06
0.00337221
2.3489e-06
0.00337177
2.31625e-06
0.00337135
2.25295e-06
0.00337095
2.16575e-06
0.00337057
2.06082e-06
0.00337023
1.94396e-06
0.00336991
1.82011e-06
0.00336962
1.69334e-06
0.00336935
1.56704e-06
0.0033691
1.44382e-06
0.00336888
1.32511e-06
0.00336868
1.21066e-06
0.0033685
1.10182e-06
0.00336834
9.99013e-07
0.00336819
9.02846e-07
0.00336806
8.14442e-07
0.00336794
7.33416e-07
0.00336784
6.59265e-07
0.00336774
5.91385e-07
0.00336766
5.29104e-07
0.00336759
4.72e-07
0.00336752
4.19936e-07
0.00336746
3.72855e-07
0.00336741
3.30681e-07
0.00336737
2.93022e-07
0.00336733
2.5935e-07
0.00336729
2.29142e-07
0.00336726
2.01921e-07
0.00336723
1.77338e-07
0.00336721
1.55117e-07
0.00336719
1.35078e-07
0.00336717
1.17119e-07
0.00336716
1.01081e-07
0.00336714
8.68092e-08
0.00336713
7.4224e-08
0.00336712
6.28756e-08
0.00336712
5.24333e-08
0.00336711
4.26319e-08
0.00336711
3.3166e-08
0.0033671
2.37642e-08
0.0033671
1.44272e-08
0.0033671
4.30055e-09
0.00336711
-5.31981e-09
-1.6165e-08
0.00334432
5.79463e-05
0.0033587
8.58088e-05
0.00337024
8.46511e-05
0.00337805
7.68943e-05
0.00338265
6.78584e-05
0.00338481
5.90262e-05
0.00338531
5.09625e-05
0.00338474
4.38662e-05
0.00338353
3.77314e-05
0.00338196
3.24816e-05
0.00338023
2.80174e-05
0.00337845
2.4197e-05
0.00337672
2.09025e-05
0.0033751
1.80457e-05
0.00337358
1.5538e-05
0.00337221
1.33016e-05
0.00337101
1.12752e-05
0.00336998
9.41085e-06
0.00336914
7.67438e-06
0.00336848
6.04137e-06
0.00336803
4.49235e-06
0.00336779
3.01929e-06
0.00336777
1.62697e-06
0.00336795
3.28252e-07
0.00336834
-8.52696e-07
0.00336891
-1.89286e-06
0.00336965
-2.7624e-06
0.0033705
-3.43348e-06
0.00337143
-3.88319e-06
0.00337239
-4.09721e-06
0.00337332
-4.07659e-06
0.00337418
-3.83598e-06
0.00337492
-3.4017e-06
0.00337551
-2.81305e-06
0.00337593
-2.11763e-06
0.00337617
-1.36578e-06
0.00337625
-6.05701e-07
0.00337617
1.22171e-07
0.00337595
7.86384e-07
0.00337562
1.36863e-06
0.00337521
1.84458e-06
0.00337474
2.22616e-06
0.00337424
2.50929e-06
0.00337372
2.70169e-06
0.0033732
2.81422e-06
0.00337268
2.8589e-06
0.00337218
2.84753e-06
0.00337171
2.79116e-06
0.00337126
2.69962e-06
0.00337084
2.58144e-06
0.00337046
2.44492e-06
0.00337011
2.29684e-06
0.00336978
2.14283e-06
0.00336949
1.98728e-06
0.00336922
1.83405e-06
0.00336898
1.68528e-06
0.00336877
1.54208e-06
0.00336857
1.40518e-06
0.0033684
1.27568e-06
0.00336824
1.15468e-06
0.0033681
1.04243e-06
0.00336798
9.39131e-07
0.00336787
8.44433e-07
0.00336777
7.57806e-07
0.00336768
6.78526e-07
0.0033676
6.06082e-07
0.00336754
5.40052e-07
0.00336747
4.80296e-07
0.00336742
4.26338e-07
0.00336737
3.77944e-07
0.00336733
3.34657e-07
0.0033673
2.95839e-07
0.00336726
2.60978e-07
0.00336724
2.29611e-07
0.00336721
2.01428e-07
0.00336719
1.76095e-07
0.00336717
1.53385e-07
0.00336716
1.33012e-07
0.00336714
1.14808e-07
0.00336713
9.86071e-08
0.00336712
8.4158e-08
0.00336711
7.13834e-08
0.00336711
5.93591e-08
0.0033671
4.7906e-08
0.0033671
3.70616e-08
0.00336709
2.64391e-08
0.00336709
1.58867e-08
0.00336709
4.60095e-09
0.00336709
-5.98231e-09
-1.72687e-08
0.00334136
4.99162e-05
0.0033524
7.47694e-05
0.00336196
7.50972e-05
0.00336911
6.9745e-05
0.00337392
6.30439e-05
0.0033768
5.61428e-05
0.00337823
4.95368e-05
0.00337862
4.34804e-05
0.00337827
3.80733e-05
0.00337746
3.32944e-05
0.00337638
2.90984e-05
0.00337515
2.54248e-05
0.00337386
2.21959e-05
0.00337257
1.93371e-05
0.00337133
1.6777e-05
0.00337018
1.44518e-05
0.00336914
1.23107e-05
0.00336824
1.03126e-05
0.00336749
8.42116e-06
0.00336693
6.6088e-06
0.00336656
4.86092e-06
0.0033664
3.17452e-06
0.00336647
1.55827e-06
0.00336677
2.51493e-08
0.00336731
-1.38338e-06
0.00336805
-2.63899e-06
0.00336898
-3.69328e-06
0.00337006
-4.50812e-06
0.00337122
-5.04694e-06
0.00337241
-5.28849e-06
0.00337357
-5.22953e-06
0.00337461
-4.8855e-06
0.00337551
-4.29287e-06
0.0033762
-3.50658e-06
0.00337667
-2.59237e-06
0.00337693
-1.61888e-06
0.00337697
-6.48893e-07
0.00337682
2.69365e-07
0.00337652
1.08915e-06
0.0033761
1.78821e-06
0.00337559
2.35314e-06
0.00337503
2.78957e-06
0.00337444
3.10185e-06
0.00337384
3.30237e-06
0.00337324
3.40686e-06
0.00337267
3.43165e-06
0.00337213
3.39182e-06
0.00337162
3.30112e-06
0.00337114
3.17184e-06
0.00337071
3.01514e-06
0.00337031
2.84069e-06
0.00336995
2.65605e-06
0.00336963
2.46766e-06
0.00336934
2.28024e-06
0.00336907
2.09765e-06
0.00336884
1.92065e-06
0.00336863
1.75154e-06
0.00336844
1.59145e-06
0.00336828
1.44156e-06
0.00336813
1.30214e-06
0.003368
1.1735e-06
0.00336788
1.05558e-06
0.00336778
9.47618e-07
0.00336769
8.48483e-07
0.00336761
7.5838e-07
0.00336754
6.76393e-07
0.00336748
6.02072e-07
0.00336742
5.35167e-07
0.00336737
4.74423e-07
0.00336733
4.2021e-07
0.00336729
3.71637e-07
0.00336726
3.28089e-07
0.00336723
2.8905e-07
0.00336721
2.54056e-07
0.00336719
2.22706e-07
0.00336717
1.94583e-07
0.00336715
1.69375e-07
0.00336714
1.46816e-07
0.00336713
1.26722e-07
0.00336712
1.08876e-07
0.00336711
9.2885e-08
0.0033671
7.8597e-08
0.0033671
6.51984e-08
0.00336709
5.26101e-08
0.00336709
4.06361e-08
0.00336708
2.90304e-08
0.00336708
1.76347e-08
0.00336708
5.66301e-09
0.00336708
-5.51408e-09
-1.70026e-08
0.00333947
4.37752e-05
0.00334819
6.60567e-05
0.0033561
6.71891e-05
0.00336242
6.34204e-05
0.00336709
5.83725e-05
0.00337028
5.29587e-05
0.00337222
4.75956e-05
0.0033732
4.24978e-05
0.00337348
3.77882e-05
0.00337327
3.35119e-05
0.0033727
2.96639e-05
0.00337191
2.62173e-05
0.00337098
2.31231e-05
0.00336999
2.03255e-05
0.003369
1.77726e-05
0.00336803
1.54156e-05
0.00336714
1.32083e-05
0.00336634
1.11092e-05
0.00336568
9.08369e-06
0.00336518
7.10706e-06
0.00336487
5.16612e-06
0.00336479
3.26016e-06
0.00336495
1.40019e-06
0.00336537
-3.99435e-07
0.00336606
-2.07127e-06
0.003367
-3.58287e-06
0.00336817
-4.86491e-06
0.00336952
-5.85714e-06
0.00337098
-6.50716e-06
0.00337247
-6.77959e-06
0.00337391
-6.66351e-06
0.0033752
-6.17787e-06
0.00337628
-5.37335e-06
0.0033771
-4.32611e-06
0.00337764
-3.12738e-06
0.00337789
-1.87054e-06
0.00337788
-6.39781e-07
0.00337763
5.16186e-07
0.00337721
1.50841e-06
0.00337667
2.33592e-06
0.00337603
2.98926e-06
0.00337534
3.47476e-06
0.00337464
3.80504e-06
0.00337394
3.99968e-06
0.00337327
4.08065e-06
0.00337263
4.06958e-06
0.00337204
3.98654e-06
0.00337149
3.84876e-06
0.00337099
3.67127e-06
0.00337054
3.46693e-06
0.00337013
3.24687e-06
0.00336977
3.02003e-06
0.00336944
2.79291e-06
0.00336915
2.56985e-06
0.0033689
2.35397e-06
0.00336867
2.1473e-06
0.00336847
1.95156e-06
0.00336829
1.7679e-06
0.00336814
1.59714e-06
0.003368
1.43954e-06
0.00336788
1.29474e-06
0.00336777
1.16212e-06
0.00336768
1.04085e-06
0.0033676
9.30241e-07
0.00336753
8.29823e-07
0.00336746
7.39026e-07
0.00336741
6.56982e-07
0.00336736
5.83072e-07
0.00336732
5.16671e-07
0.00336728
4.57066e-07
0.00336725
4.03618e-07
0.00336722
3.55774e-07
0.0033672
3.13018e-07
0.00336718
2.74828e-07
0.00336716
2.40668e-07
0.00336714
2.10061e-07
0.00336713
1.82773e-07
0.00336712
1.58351e-07
0.00336711
1.36655e-07
0.0033671
1.17377e-07
0.00336709
1.00073e-07
0.00336709
8.44213e-08
0.00336708
7.00285e-08
0.00336708
5.6537e-08
0.00336708
4.3758e-08
0.00336707
3.14957e-08
0.00336707
1.95584e-08
0.00336707
7.2528e-09
0.00336707
-4.19038e-09
-1.57004e-08
0.00333819
3.89187e-05
0.00334521
5.90352e-05
0.00335183
6.05698e-05
0.00335739
5.78586e-05
0.00336175
5.40199e-05
0.00336495
4.9759e-05
0.00336714
4.53987e-05
0.00336851
4.11319e-05
0.00336922
3.70789e-05
0.00336942
3.33084e-05
0.00336925
2.98392e-05
0.0033688
2.66608e-05
0.00336818
2.3748e-05
0.00336744
2.10659e-05
0.00336663
1.85747e-05
0.00336582
1.62327e-05
0.00336503
1.39973e-05
0.00336431
1.18285e-05
0.0033637
9.6936e-06
0.00336324
7.56823e-06
0.00336297
5.43747e-06
0.00336293
3.29847e-06
0.00336316
1.16469e-06
0.0033637
-9.3421e-07
0.00336456
-2.92942e-06
0.00336573
-4.75668e-06
0.00336719
-6.32629e-06
0.00336888
-7.54869e-06
0.00337072
-8.34394e-06
0.0033726
-8.65457e-06
0.00337439
-8.45953e-06
0.003376
-7.78218e-06
0.00337731
-6.69229e-06
0.00337828
-5.29626e-06
0.00337888
-3.72149e-06
0.00337911
-2.09676e-06
0.003379
-5.33874e-07
0.00337863
8.89242e-07
0.00337804
2.09625e-06
0.00337732
3.05508e-06
0.00337652
3.79206e-06
0.00337568
4.31359e-06
0.00337484
4.64353e-06
0.00337403
4.81121e-06
0.00337326
4.84706e-06
0.00337255
4.78025e-06
0.0033719
4.63597e-06
0.00337131
4.43562e-06
0.00337079
4.19684e-06
0.00337032
3.93476e-06
0.00336991
3.66134e-06
0.00336954
3.38569e-06
0.00336922
3.11443e-06
0.00336894
2.85194e-06
0.00336869
2.60082e-06
0.00336847
2.36281e-06
0.00336829
2.13942e-06
0.00336812
1.93173e-06
0.00336798
1.7402e-06
0.00336786
1.56446e-06
0.00336775
1.40363e-06
0.00336765
1.25689e-06
0.00336757
1.12327e-06
0.0033675
1.00183e-06
0.00336744
8.92037e-07
0.00336738
7.92902e-07
0.00336733
7.03724e-07
0.00336729
6.23741e-07
0.00336726
5.51949e-07
0.00336723
4.87583e-07
0.0033672
4.29977e-07
0.00336718
3.78497e-07
0.00336716
3.32541e-07
0.00336714
2.91523e-07
0.00336713
2.54901e-07
0.00336712
2.22217e-07
0.00336711
1.93231e-07
0.0033671
1.67334e-07
0.00336709
1.44332e-07
0.00336708
1.24004e-07
0.00336708
1.05543e-07
0.00336707
8.89869e-08
0.00336707
7.37619e-08
0.00336707
5.95788e-08
0.00336706
4.63012e-08
0.00336706
3.36706e-08
0.00336706
2.14971e-08
0.00336706
9.20773e-09
0.00336706
-2.25345e-09
-1.3627e-08
0.00333729
3.4963e-05
0.00334309
5.32356e-05
0.00334869
5.49734e-05
0.00335354
5.30019e-05
0.00335752
5.00403e-05
0.00336062
4.6663e-05
0.0033629
4.31133e-05
0.00336448
3.95572e-05
0.00336545
3.61024e-05
0.00336595
3.28144e-05
0.00336606
2.97243e-05
0.00336589
2.68374e-05
0.00336549
2.41427e-05
0.00336494
2.16179e-05
0.00336428
1.92308e-05
0.00336357
1.69434e-05
0.00336285
1.47161e-05
0.00336217
1.25112e-05
0.00336157
1.02942e-05
0.0033611
8.03584e-06
0.00336083
5.71532e-06
0.0033608
3.32671e-06
0.00336108
8.85278e-07
0.00336171
-1.56865e-06
0.00336274
-3.96013e-06
0.00336418
-6.19056e-06
0.00336599
-8.13698e-06
0.00336811
-9.66792e-06
0.00337042
-1.06612e-05
0.00337279
-1.10268e-05
0.00337506
-1.07284e-05
0.00337707
-9.79097e-06
0.00337869
-8.31241e-06
0.00337984
-6.44331e-06
0.00338048
-4.36564e-06
0.00338065
-2.26098e-06
0.00338039
-2.79401e-07
0.00337981
1.4696e-06
0.00337901
2.90287e-06
0.00337806
4.00273e-06
0.00337704
4.80936e-06
0.00337601
5.34296e-06
0.00337501
5.64371e-06
0.00337407
5.75479e-06
0.0033732
5.71752e-06
0.00337241
5.56911e-06
0.0033717
5.34137e-06
0.00337108
5.06027e-06
0.00337053
4.74608e-06
0.00337005
4.41482e-06
0.00336963
4.07898e-06
0.00336927
3.74795e-06
0.00336896
3.42783e-06
0.00336869
3.12238e-06
0.00336845
2.83375e-06
0.00336825
2.5633e-06
0.00336808
2.31198e-06
0.00336793
2.08026e-06
0.0033678
1.86805e-06
0.00336769
1.67452e-06
0.0033676
1.49839e-06
0.00336752
1.33828e-06
0.00336745
1.19304e-06
0.00336739
1.06173e-06
0.00336734
9.43364e-07
0.00336729
8.36977e-07
0.00336725
7.41607e-07
0.00336722
6.56178e-07
0.00336719
5.79684e-07
0.00336717
5.11307e-07
0.00336715
4.50246e-07
0.00336713
3.95719e-07
0.00336712
3.47088e-07
0.00336711
3.03741e-07
0.0033671
2.65156e-07
0.00336709
2.30874e-07
0.00336708
2.00504e-07
0.00336707
1.73545e-07
0.00336707
1.49569e-07
0.00336706
1.28407e-07
0.00336706
1.09256e-07
0.00336706
9.20491e-08
0.00336706
7.63003e-08
0.00336705
6.17355e-08
0.00336705
4.81928e-08
0.00336705
3.54613e-08
0.00336705
2.33542e-08
0.00336705
1.13109e-08
0.00336704
3.79837e-11
-1.10179e-08
0.00333663
3.16628e-05
0.00334151
4.83615e-05
0.0033463
5.01857e-05
0.00335056
4.87398e-05
0.00335417
4.64264e-05
0.0033571
4.37325e-05
0.00335937
4.08449e-05
0.00336104
3.78921e-05
0.00336217
3.49659e-05
0.00336286
3.21258e-05
0.00336318
2.94068e-05
0.00336319
2.68234e-05
0.00336296
2.43722e-05
0.00336254
2.2036e-05
0.00336199
1.97871e-05
0.00336134
1.75915e-05
0.00336064
1.54115e-05
0.00335995
1.32071e-05
0.00335931
1.09374e-05
0.00335878
8.56402e-06
0.00335844
6.05703e-06
0.00335836
3.40317e-06
0.00335863
6.14305e-07
0.00335933
-2.26914e-06
0.00336053
-5.15681e-06
0.00336225
-7.91443e-06
0.00336448
-1.03669e-05
0.00336714
-1.23237e-05
0.00337007
-1.35992e-05
0.0033731
-1.40534e-05
0.00337599
-1.36211e-05
0.00337853
-1.23313e-05
0.00338054
-1.03152e-05
0.00338189
-7.79376e-06
0.00338256
-5.03665e-06
0.0033826
-2.30227e-06
0.00338211
2.12159e-07
0.00338123
2.34985e-06
0.00338012
4.01188e-06
0.00337887
5.25147e-06
0.00337758
6.09806e-06
0.00337632
6.60457e-06
0.00337513
6.83386e-06
0.00337404
6.84712e-06
0.00337306
6.69948e-06
0.00337219
6.43805e-06
0.00337143
6.10114e-06
0.00337077
5.71848e-06
0.0033702
5.31255e-06
0.00336972
4.90013e-06
0.0033693
4.49323e-06
0.00336895
4.10034e-06
0.00336865
3.72677e-06
0.0033684
3.37553e-06
0.00336818
3.04797e-06
0.003368
2.74455e-06
0.00336785
2.46529e-06
0.00336772
2.20993e-06
0.00336761
1.97771e-06
0.00336752
1.76727e-06
0.00336744
1.57675e-06
0.00336737
1.40443e-06
0.00336732
1.24885e-06
0.00336727
1.10874e-06
0.00336723
9.82909e-07
0.0033672
8.70208e-07
0.00336717
7.69497e-07
0.00336715
6.796e-07
0.00336713
5.99347e-07
0.00336711
5.27752e-07
0.0033671
4.63876e-07
0.00336708
4.06929e-07
0.00336708
3.56246e-07
0.00336707
3.11194e-07
0.00336706
2.71204e-07
0.00336706
2.35778e-07
0.00336705
2.04468e-07
0.00336705
1.76799e-07
0.00336705
1.52281e-07
0.00336705
1.30478e-07
0.00336704
1.11015e-07
0.00336704
9.3445e-08
0.00336704
7.74752e-08
0.00336704
6.28383e-08
0.00336704
4.93526e-08
0.00336704
3.67976e-08
0.00336704
2.49677e-08
0.00336703
1.33202e-08
0.00336703
2.51697e-09
-8.0932e-09
0.00333614
2.8859e-05
0.0033403
4.41963e-05
0.00334445
4.60345e-05
0.00334823
4.49681e-05
0.0033515
4.31511e-05
0.00335424
4.09959e-05
0.00335643
3.86487e-05
0.00335812
3.62068e-05
0.00335934
3.37449e-05
0.00336015
3.13172e-05
0.0033606
2.89577e-05
0.00336074
2.66822e-05
0.00336062
2.44899e-05
0.00336029
2.23669e-05
0.00335979
2.0289e-05
0.00335916
1.82243e-05
0.00335843
1.61334e-05
0.00335767
1.39701e-05
0.00335692
1.16837e-05
0.00335627
9.22292e-06
0.00335578
6.5424e-06
0.00335557
3.61218e-06
0.00335575
4.31329e-07
0.00335646
-2.9724e-06
0.00335779
-6.49406e-06
0.00335983
-9.94924e-06
0.00336256
-1.30988e-05
0.0033659
-1.56591e-05
0.00336965
-1.735e-05
0.00337355
-1.79525e-05
0.00337728
-1.73543e-05
0.00338053
-1.55791e-05
0.00338302
-1.28084e-05
0.0033846
-9.37389e-06
0.00338525
-5.68451e-06
0.00338507
-2.12143e-06
0.00338419
1.08693e-06
0.0033829
3.64061e-06
0.00338137
5.54664e-06
0.00337973
6.89241e-06
0.0033781
7.72618e-06
0.00337656
8.14356e-06
0.00337515
8.24016e-06
0.0033739
8.10092e-06
0.0033728
7.79656e-06
0.00337186
7.38397e-06
0.00337105
6.90769e-06
0.00337037
6.40075e-06
0.00336979
5.88652e-06
0.00336931
5.38089e-06
0.00336891
4.89449e-06
0.00336858
4.43415e-06
0.0033683
4.00369e-06
0.00336807
3.60476e-06
0.00336788
3.23758e-06
0.00336772
2.90149e-06
0.00336759
2.59526e-06
0.00336749
2.3174e-06
0.0033674
2.06632e-06
0.00336733
1.84007e-06
0.00336727
1.63651e-06
0.00336722
1.45349e-06
0.00336718
1.28905e-06
0.00336714
1.14152e-06
0.00336712
1.00947e-06
0.0033671
8.91625e-07
0.00336708
7.86694e-07
0.00336706
6.93344e-07
0.00336705
6.10259e-07
0.00336705
5.36282e-07
0.00336704
4.70414e-07
0.00336703
4.11816e-07
0.00336703
3.59754e-07
0.00336703
3.13601e-07
0.00336703
2.72764e-07
0.00336703
2.36708e-07
0.00336703
2.04966e-07
0.00336703
1.76998e-07
0.00336703
1.52234e-07
0.00336703
1.30305e-07
0.00336703
1.107e-07
0.00336703
9.30807e-08
0.00336703
7.71956e-08
0.00336703
6.27825e-08
0.00336703
4.96278e-08
0.00336703
3.74924e-08
0.00336702
2.61307e-08
0.00336702
1.51183e-08
0.00336702
4.96632e-09
-5.01679e-09
0.00333576
2.64356e-05
0.00333938
4.05749e-05
0.00334302
4.23903e-05
0.00334638
4.16058e-05
0.00334936
4.01761e-05
0.0033519
3.84523e-05
0.003354
3.65489e-05
0.00335567
3.45418e-05
0.00335692
3.24916e-05
0.00335779
3.04442e-05
0.00335832
2.84294e-05
0.00335854
2.64609e-05
0.00335849
2.45392e-05
0.00335821
2.26526e-05
0.00335772
2.07789e-05
0.00335706
1.88858e-05
0.00335626
1.69297e-05
0.00335537
1.48568e-05
0.00335445
1.26036e-05
0.00335358
1.01005e-05
0.00335284
7.27673e-06
0.00335238
4.07178e-06
0.00335236
4.56466e-07
0.00335295
-3.56976e-06
0.00335437
-7.90748e-06
0.00335672
-1.23038e-05
0.00336005
-1.64288e-05
0.00336426
-1.98636e-05
0.00336909
-2.21796e-05
0.00337417
-2.30345e-05
0.00337905
-2.22374e-05
0.00338326
-1.97904e-05
0.0033864
-1.59403e-05
0.00338822
-1.12002e-05
0.00338874
-6.20746e-06
0.00338814
-1.51714e-06
0.00338674
2.48964e-06
0.00338485
5.529e-06
0.00338273
7.6687e-06
0.00338058
9.0415e-06
0.00337853
9.77045e-06
0.00337667
1.00058e-05
0.00337503
9.88505e-06
0.00337361
9.5215e-06
0.0033724
9.00286e-06
0.00337139
8.39527e-06
0.00337055
7.74709e-06
0.00336986
7.09229e-06
0.00336929
6.45323e-06
0.00336883
5.84342e-06
0.00336845
5.27055e-06
0.00336815
4.73864e-06
0.0033679
4.24931e-06
0.0033677
3.80234e-06
0.00336755
3.39625e-06
0.00336742
3.0287e-06
0.00336732
2.69698e-06
0.00336724
2.39839e-06
0.00336717
2.13039e-06
0.00336712
1.89037e-06
0.00336708
1.67562e-06
0.00336705
1.48359e-06
0.00336703
1.31195e-06
0.00336701
1.15866e-06
0.003367
1.02201e-06
0.00336699
9.00457e-07
0.00336698
7.9252e-07
0.00336698
6.96772e-07
0.00336698
6.11836e-07
0.00336698
5.36466e-07
0.00336698
4.69528e-07
0.00336698
4.101e-07
0.00336698
3.5739e-07
0.00336699
3.10765e-07
0.00336699
2.69672e-07
0.00336699
2.33579e-07
0.003367
2.01859e-07
0.003367
1.73966e-07
0.003367
1.49355e-07
0.00336701
1.27614e-07
0.00336701
1.08224e-07
0.00336701
9.09139e-08
0.00336701
7.54315e-08
0.00336701
6.15114e-08
0.00336701
4.89068e-08
0.00336701
3.73939e-08
0.00336701
2.67304e-08
0.00336701
1.65715e-08
0.00336701
7.24401e-09
-1.94829e-09
0.00333546
2.4307e-05
0.00333866
3.73764e-05
0.0033419
3.91499e-05
0.00334493
3.85816e-05
0.00334764
3.74579e-05
0.00335001
3.60846e-05
0.00335201
3.45525e-05
0.00335363
3.29212e-05
0.00335488
3.12391e-05
0.00335578
2.95429e-05
0.00335635
2.78572e-05
0.00335662
2.61939e-05
0.00335661
2.45539e-05
0.00335633
2.29269e-05
0.00335582
2.12911e-05
0.00335509