/*--------------------------------*- C++ -*----------------------------------*\
| =========                 |                                                 |
| \\      /  F ield         | OpenFOAM: The Open Source CFD Toolbox           |
|  \\    /   O peration     | Version:  v1806                                 |
|   \\  /    A nd           | Web:      www.OpenFOAM.com                      |
|    \\/     M anipulation  |                                                 |
\*---------------------------------------------------------------------------*/
FoamFile
{
    version     2.0;
    format      ascii;
    class       volVectorField;
    location    "0.02";
    object      U;
}
// * * * * * * * * * * * * * * * * * * * * * * * * * * * * * * * * * * * * * //

dimensions      [0 1 -1 0 0 0 0];


internalField   nonuniform List<vector> 
5400
(
(0.786042 0.0650945 0)
(0.891972 0.0465189 0)
(0.82246 0.0232019 0)
(0.77748 0.0110501 0)
(0.763547 0.00583146 0)
(0.756008 0.00351828 0)
(0.750431 0.00232176 0)
(0.746496 0.00164095 0)
(0.743642 0.00122417 0)
(0.741469 0.000948438 0)
(0.739758 0.000754785 0)
(0.738384 0.000610294 0)
(0.737259 0.000501029 0)
(0.736329 0.000415128 0)
(0.735558 0.000345036 -4.22033e-36)
(0.734912 0.00028873 4.22033e-36)
(0.73438 0.000238487 0)
(0.733937 0.000195686 0)
(0.733572 0.000159818 0)
(0.733285 0.000124569 0)
(0.733058 9.44979e-05 0)
(0.732888 6.94556e-05 0)
(0.732778 4.29018e-05 0)
(0.732708 1.98514e-05 0)
(0.732679 3.39086e-06 0)
(0.732694 -1.26625e-05 0)
(0.732735 -2.87147e-05 0)
(0.732795 -3.78264e-05 0)
(0.732878 -4.18074e-05 0)
(0.732976 -4.6559e-05 0)
(0.733072 -4.97974e-05 0)
(0.733164 -4.68074e-05 0)
(0.733257 -3.9551e-05 0)
(0.733339 -3.30892e-05 0)
(0.7334 -2.72046e-05 0)
(0.733442 -1.82456e-05 0)
(0.73347 -6.73907e-06 0)
(0.73348 3.6988e-06 0)
(0.733468 1.16204e-05 0)
(0.733434 1.88111e-05 0)
(0.733386 2.65844e-05 0)
(0.733328 3.4013e-05 0)
(0.733258 3.92846e-05 0)
(0.733176 4.21254e-05 0)
(0.733086 4.38379e-05 0)
(0.732994 4.54784e-05 0)
(0.732902 4.70682e-05 0)
(0.73281 4.74246e-05 0)
(0.732716 4.60699e-05 0)
(0.732623 4.36887e-05 0)
(0.732534 4.14773e-05 0)
(0.73245 3.99205e-05 0)
(0.732373 3.85049e-05 0)
(0.732299 3.63432e-05 0)
(0.732228 3.33209e-05 0)
(0.732161 3.01462e-05 0)
(0.732101 2.7515e-05 0)
(0.732046 2.54965e-05 0)
(0.731997 2.37325e-05 0)
(0.731952 2.19414e-05 0)
(0.73191 1.98706e-05 0)
(0.731871 1.76191e-05 0)
(0.731836 1.54777e-05 0)
(0.731805 1.37311e-05 0)
(0.731778 1.24488e-05 0)
(0.731754 1.14886e-05 0)
(0.731733 1.06373e-05 0)
(0.731713 9.57516e-06 0)
(0.731695 8.30654e-06 0)
(0.731678 7.05682e-06 0)
(0.731664 6.02216e-06 0)
(0.731651 5.28118e-06 0)
(0.731641 4.77097e-06 0)
(0.731632 4.38492e-06 0)
(0.731624 4.03091e-06 0)
(0.731617 3.6223e-06 0)
(0.73161 3.11348e-06 0)
(0.731604 2.54384e-06 0)
(0.731598 1.99849e-06 0)
(0.731594 1.58026e-06 0)
(0.731591 1.33352e-06 0)
(0.731588 1.2227e-06 0)
(0.731586 1.18124e-06 0)
(0.731584 1.16435e-06 0)
(0.731582 1.10274e-06 0)
(0.73158 1.07031e-06 0)
(0.73158 1.41655e-06 0)
(0.731576 1.96913e-06 0)
(0.731586 8.90645e-06 0)
(0.73154 1.00357e-05 0)
(0.885182 0.0979961 0)
(1.07312 0.0801542 0)
(1.05249 0.0462835 0)
(1.02344 0.0257821 0)
(1.01611 0.0154241 0)
(1.01095 0.0100495 0)
(1.0059 0.00696289 0)
(1.00194 0.00506647 0)
(0.998908 0.00383987 0)
(0.996514 0.00300123 0)
(0.994588 0.00240166 0)
(0.99302 0.00195243 0)
(0.991725 0.0016074 0)
(0.990645 0.00133653 0)
(0.989745 0.00111281 0)
(0.988985 0.000929924 0)
(0.988355 0.00077374 0)
(0.987833 0.000634812 0)
(0.987397 0.000517054 0)
(0.987054 0.000410089 0)
(0.986786 0.000309493 0)
(0.98658 0.000223183 0)
(0.986444 0.000146388 0)
(0.986365 7.32792e-05 0)
(0.986331 9.70323e-06 0)
(0.986346 -4.24027e-05 0)
(0.9864 -8.53603e-05 0)
(0.98648 -0.000119439 0)
(0.986583 -0.000143502 0)
(0.986703 -0.000156994 0)
(0.986826 -0.000159491 0)
(0.98695 -0.000151925 0)
(0.987069 -0.00013736 0)
(0.987174 -0.000117486 0)
(0.987256 -9.17647e-05 0)
(0.987318 -6.08761e-05 0)
(0.987361 -2.85307e-05 0)
(0.98738 2.06879e-06 0)
(0.987371 3.05586e-05 0)
(0.987338 5.78971e-05 0)
(0.987289 8.3316e-05 0)
(0.987226 0.000104663 0)
(0.987146 0.000120166 0)
(0.987052 0.000131125 0)
(0.986948 0.000139675 0)
(0.986842 0.000146382 0)
(0.986736 0.000150039 0)
(0.986627 0.000149343 0)
(0.986516 0.000145386 0)
(0.986406 0.000140232 0)
(0.986301 0.000135153 0)
(0.986204 0.000129801 0)
(0.986113 0.000123358 0)
(0.986025 0.000115385 0)
(0.98594 0.000106566 0)
(0.98586 9.79598e-05 0)
(0.985788 9.02329e-05 0)
(0.985724 8.34043e-05 0)
(0.985666 7.69998e-05 0)
(0.985613 7.04675e-05 0)
(0.985563 6.36347e-05 0)
(0.985516 5.68767e-05 0)
(0.985473 5.08467e-05 0)
(0.985435 4.5862e-05 0)
(0.985402 4.17318e-05 0)
(0.985375 3.7939e-05 0)
(0.98535 3.41418e-05 0)
(0.985326 3.02086e-05 0)
(0.985303 2.64421e-05 0)
(0.985283 2.31284e-05 0)
(0.985265 2.0364e-05 0)
(0.98525 1.8125e-05 0)
(0.985237 1.62766e-05 0)
(0.985227 1.46503e-05 0)
(0.985217 1.3079e-05 0)
(0.985208 1.14688e-05 0)
(0.9852 9.81307e-06 0)
(0.985192 8.23005e-06 0)
(0.985186 6.87174e-06 0)
(0.98518 5.83752e-06 0)
(0.985175 5.10371e-06 0)
(0.985172 4.55375e-06 0)
(0.98517 4.05466e-06 0)
(0.985168 3.53861e-06 0)
(0.985166 2.99987e-06 0)
(0.985164 2.62429e-06 0)
(0.985163 2.90582e-06 0)
(0.985166 3.00562e-06 0)
(0.985157 1.15444e-05 0)
(0.985164 1.26004e-05 0)
(0.882851 0.0549333 0)
(1.06702 0.0595856 0)
(1.05589 0.0434245 0)
(1.03473 0.0297205 0)
(1.03236 0.0205691 0)
(1.03006 0.0146587 0)
(1.02663 0.0107727 0)
(1.02363 0.00814816 0)
(1.02117 0.00632847 0)
(1.01913 0.00502386 0)
(1.01742 0.00406195 0)
(1.01599 0.00333183 0)
(1.01479 0.00275844 0)
(1.01378 0.00230351 0)
(1.01292 0.00192733 0)
(1.0122 0.00161055 0)
(1.01159 0.00134628 0)
(1.01108 0.00111078 0)
(1.01066 0.000898424 0)
(1.01032 0.000713834 0)
(1.01006 0.000546146 0)
(1.00987 0.000390092 0)
(1.00974 0.000249749 0)
(1.00966 0.000124297 0)
(1.00964 1.34495e-05 0)
(1.00967 -8.08684e-05 0)
(1.00974 -0.000159075 0)
(1.00982 -0.000221466 0)
(1.00994 -0.000264267 0)
(1.01008 -0.000286317 0)
(1.01022 -0.000290806 0)
(1.01035 -0.000280757 0)
(1.01048 -0.000256288 0)
(1.0106 -0.000217151 0)
(1.01069 -0.000167675 0)
(1.01076 -0.000114155 0)
(1.0108 -5.94545e-05 0)
(1.01082 -4.25523e-06 0)
(1.01081 5.05074e-05 0)
(1.01078 0.000101231 0)
(1.01072 0.000144831 0)
(1.01065 0.000180006 0)
(1.01057 0.000207956 0)
(1.01047 0.000230572 0)
(1.01036 0.000247802 0)
(1.01025 0.000258556 0)
(1.01014 0.00026214 0)
(1.01002 0.000260177 0)
(1.00991 0.000254926 0)
(1.0098 0.000248005 0)
(1.00969 0.000239471 0)
(1.00959 0.000228779 0)
(1.0095 0.000215841 0)
(1.00941 0.000201376 0)
(1.00932 0.00018672 0)
(1.00924 0.000172746 0)
(1.00917 0.000159758 0)
(1.00911 0.000147366 0)
(1.00905 0.000135213 0)
(1.00899 0.000123042 0)
(1.00894 0.00011111 0)
(1.0089 0.000100031 0)
(1.00885 9.02358e-05 0)
(1.00882 8.16237e-05 0)
(1.00878 7.38001e-05 0)
(1.00876 6.64246e-05 0)
(1.00873 5.92937e-05 0)
(1.00871 5.25937e-05 0)
(1.00868 4.6535e-05 0)
(1.00866 4.11723e-05 0)
(1.00865 3.651e-05 0)
(1.00863 3.2479e-05 0)
(1.00862 2.89687e-05 0)
(1.00861 2.57961e-05 0)
(1.0086 2.27817e-05 0)
(1.00859 1.98675e-05 0)
(1.00858 1.71207e-05 0)
(1.00857 1.46609e-05 0)
(1.00857 1.25855e-05 0)
(1.00856 1.08717e-05 0)
(1.00856 9.43527e-06 0)
(1.00855 8.16813e-06 0)
(1.00855 6.98631e-06 0)
(1.00855 5.82397e-06 0)
(1.00855 4.74517e-06 0)
(1.00855 3.86388e-06 0)
(1.00855 3.35564e-06 0)
(1.00855 2.62269e-06 0)
(1.00854 4.40569e-06 0)
(1.00855 3.07829e-06 0)
(0.878292 0.0385413 0)
(1.05436 0.0482751 0)
(1.04401 0.0398512 0)
(1.02612 0.0303472 0)
(1.02673 0.0228087 0)
(1.02664 0.0172853 0)
(1.02472 0.0133053 0)
(1.02272 0.0104161 0)
(1.02093 0.00829379 0)
(1.01935 0.00670541 0)
(1.01796 0.00549263 0)
(1.01675 0.00455269 0)
(1.0157 0.00379857 0)
(1.0148 0.00318625 0)
(1.01402 0.00268493 5.43633e-34)
(1.01336 0.00225443 -5.43633e-34)
(1.0128 0.00188121 0)
(1.01232 0.00155778 0)
(1.01193 0.0012673 0)
(1.01162 0.00100311 0)
(1.01138 0.000763353 0)
(1.01119 0.000542914 0)
(1.01109 0.00034187 0)
(1.01103 0.000162425 0)
(1.01103 2.91553e-06 0)
(1.01107 -0.000136784 0)
(1.01116 -0.000252566 0)
(1.01127 -0.000339574 0)
(1.01142 -0.000398829 0)
(1.01158 -0.000433446 0)
(1.01173 -0.000442959 0)
(1.01188 -0.000425383 0)
(1.01204 -0.000383031 0)
(1.01217 -0.000323229 0)
(1.01227 -0.000252857 0)
(1.01233 -0.000174618 0)
(1.01238 -9.04334e-05 0)
(1.0124 -4.96323e-06 0)
(1.01239 7.59233e-05 0)
(1.01235 0.000148042 0)
(1.01228 0.000209955 0)
(1.0122 0.00026211 0)
(1.01211 0.000305324 0)
(1.01201 0.000338832 0)
(1.01189 0.000361698 0)
(1.01177 0.000374135 0)
(1.01165 0.000377996 0)
(1.01153 0.000375947 0)
(1.01142 0.00036939 0)
(1.0113 0.000358904 0)
(1.01119 0.000344802 0)
(1.01109 0.000327727 0)
(1.01099 0.000308473 0)
(1.0109 0.000288082 0)
(1.01082 0.000267617 0)
(1.01074 0.000247896 0)
(1.01067 0.000228965 0)
(1.0106 0.000210526 0)
(1.01054 0.000192396 0)
(1.01049 0.000174777 0)
(1.01044 0.000158138 0)
(1.01039 0.00014288 0)
(1.01035 0.000128973 0)
(1.01032 0.000116245 0)
(1.01029 0.000104549 0)
(1.01026 9.38221e-05 0)
(1.01023 8.39529e-05 0)
(1.01021 7.48763e-05 0)
(1.01019 6.64917e-05 0)
(1.01017 5.88635e-05 0)
(1.01015 5.2102e-05 0)
(1.01014 4.61987e-05 0)
(1.01013 4.10169e-05 0)
(1.01012 3.63523e-05 0)
(1.01011 3.20404e-05 0)
(1.0101 2.80237e-05 0)
(1.01009 2.43445e-05 0)
(1.01008 2.10471e-05 0)
(1.01008 1.81316e-05 0)
(1.01007 1.55685e-05 0)
(1.01007 1.33163e-05 0)
(1.01006 1.13249e-05 0)
(1.01006 9.54862e-06 0)
(1.01006 7.94328e-06 0)
(1.01006 6.45279e-06 0)
(1.01006 5.02193e-06 0)
(1.01006 3.69687e-06 0)
(1.01006 2.21917e-06 0)
(1.01005 1.52255e-06 0)
(1.01006 -8.55515e-07 0)
(0.87607 0.0289471 0)
(1.0472 0.0394172 0)
(1.03571 0.0352197 0)
(1.01881 0.0288475 0)
(1.0209 0.0230772 0)
(1.02219 0.0183902 0)
(1.02139 0.0147302 0)
(1.02024 0.0118981 0)
(1.01907 0.00970604 0)
(1.01793 0.00800027 0)
(1.01687 0.00664794 0)
(1.0159 0.00556943 0)
(1.01503 0.00469707 0)
(1.01426 0.00396882 0)
(1.01358 0.00335669 0)
(1.01299 0.00283487 0)
(1.01248 0.00237684 0)
(1.01206 0.00197035 0)
(1.01169 0.00160458 0)
(1.01141 0.0012682 0)
(1.01119 0.000959022 0)
(1.01103 0.000677232 0)
(1.01095 0.000418152 0)
(1.01091 0.00017935 0)
(1.01093 -3.40565e-05 0)
(1.011 -0.000216682 0)
(1.01112 -0.000365994 0)
(1.01126 -0.000482933 0)
(1.01143 -0.000566159 0)
(1.01163 -0.000611037 0)
(1.01182 -0.000616476 0)
(1.012 -0.000586557 0)
(1.01217 -0.000528196 0)
(1.01232 -0.000447551 0)
(1.01243 -0.000348617 0)
(1.01251 -0.000236185 0)
(1.01256 -0.000117865 0)
(1.01257 -1.69809e-06 0)
(1.01255 0.000105907 0)
(1.0125 0.000202543 0)
(1.01242 0.000286394 0)
(1.01234 0.000357191 0)
(1.01223 0.000413864 0)
(1.01211 0.000455465 0)
(1.01199 0.000482617 0)
(1.01186 0.000497179 0)
(1.01173 0.00050167 0)
(1.0116 0.000498038 0)
(1.01148 0.000487909 0)
(1.01136 0.000472286 0)
(1.01125 0.000452085 0)
(1.01114 0.000428283 0)
(1.01105 0.000402217 0)
(1.01096 0.000375354 0)
(1.01087 0.000348743 0)
(1.01079 0.00032277 0)
(1.01072 0.000297388 0)
(1.01066 0.000272643 0)
(1.0106 0.000248627 0)
(1.01055 0.000225693 0)
(1.0105 0.00020425 0)
(1.01045 0.000184471 0)
(1.01041 0.000166363 0)
(1.01038 0.000149864 0)
(1.01035 0.000134797 0)
(1.01032 0.000120902 0)
(1.0103 0.00010803 0)
(1.01028 9.6134e-05 0)
(1.01026 8.52794e-05 0)
(1.01024 7.55807e-05 0)
(1.01022 6.70271e-05 0)
(1.01021 5.94739e-05 0)
(1.0102 5.27095e-05 0)
(1.01019 4.65643e-05 0)
(1.01018 4.09287e-05 0)
(1.01017 3.57741e-05 0)
(1.01016 3.11259e-05 0)
(1.01016 2.69728e-05 0)
(1.01015 2.32932e-05 0)
(1.01014 2.00471e-05 0)
(1.01014 1.71645e-05 0)
(1.01014 1.45718e-05 0)
(1.01014 1.21966e-05 0)
(1.01013 1.00164e-05 0)
(1.01013 7.95145e-06 0)
(1.01013 5.89863e-06 0)
(1.01013 3.85783e-06 0)
(1.01014 1.61948e-06 0)
(1.01012 -4.10736e-07 0)
(1.01014 -3.30125e-06 0)
(0.875004 0.0229558 0)
(1.04329 0.0327472 0)
(1.03046 0.0308156 0)
(1.01362 0.0265862 0)
(1.01631 0.0223023 0)
(1.01837 0.0185121 0)
(1.01831 0.0153413 0)
(1.01778 0.0127465 0)
(1.01712 0.0106326 0)
(1.01637 0.00892446 0)
(1.01561 0.00753511 0)
(1.01488 0.00638694 0)
(1.01418 0.00543472 0)
(1.01354 0.00463285 0)
(1.01297 0.0039446 0)
(1.01246 0.00334827 0)
(1.01202 0.00282062 0)
(1.01163 0.00234205 0)
(1.01131 0.0019054 0)
(1.01106 0.00150666 0)
(1.01087 0.00113688 0)
(1.01073 0.000788648 0)
(1.01067 0.000463164 0)
(1.01066 0.000167106 0)
(1.01071 -9.57434e-05 0)
(1.01082 -0.0003249 0)
(1.01097 -0.000517795 0)
(1.01115 -0.000668421 0)
(1.01137 -0.000769947 0)
(1.0116 -0.00082035 0)
(1.01184 -0.000822241 0)
(1.01205 -0.000780915 0)
(1.01225 -0.000701572 0)
(1.01243 -0.000589551 0)
(1.01256 -0.000452358 0)
(1.01264 -0.00030039 0)
(1.01269 -0.000144601 0)
(1.0127 6.11203e-06 0)
(1.01267 0.000145791 0)
(1.01261 0.000270738 0)
(1.01252 0.000378393 0)
(1.01241 0.000467032 0)
(1.01229 0.000535558 0)
(1.01215 0.000584401 0)
(1.01201 0.00061531 0)
(1.01187 0.000630965 0)
(1.01173 0.000634178 0)
(1.0116 0.000627259 0)
(1.01147 0.00061196 0)
(1.01134 0.00058971 0)
(1.01123 0.000562038 0)
(1.01112 0.000530651 0)
(1.01102 0.000497327 0)
(1.01093 0.000463485 0)
(1.01084 0.000429934 0)
(1.01077 0.000396867 0)
(1.0107 0.000364586 0)
(1.01063 0.000333367 0)
(1.01058 0.000303481 0)
(1.01053 0.000275268 0)
(1.01048 0.000248957 0)
(1.01044 0.000224657 0)
(1.0104 0.00020243 0)
(1.01036 0.000182164 0)
(1.01034 0.000163606 0)
(1.01031 0.000146517 0)
(1.01029 0.000130753 0)
(1.01027 0.000116303 0)
(1.01025 0.000103222 0)
(1.01023 9.15296e-05 0)
(1.01022 8.1152e-05 0)
(1.0102 7.19078e-05 0)
(1.01019 6.36012e-05 0)
(1.01018 5.60764e-05 0)
(1.01018 4.9245e-05 0)
(1.01017 4.30606e-05 0)
(1.01016 3.74993e-05 0)
(1.01015 3.25156e-05 0)
(1.01015 2.80798e-05 0)
(1.01014 2.4146e-05 0)
(1.01014 2.06498e-05 0)
(1.01014 1.75265e-05 0)
(1.01014 1.4649e-05 0)
(1.01013 1.19191e-05 0)
(1.01013 9.29284e-06 0)
(1.01013 6.70082e-06 0)
(1.01013 4.10538e-06 0)
(1.01014 1.28817e-06 0)
(1.01012 -1.42217e-06 0)
(1.01014 -4.57225e-06 0)
(0.87445 0.0189742 0)
(1.04102 0.027786 0)
(1.02708 0.0270429 0)
(1.00995 0.0242039 0)
(1.01279 0.0210497 0)
(1.01523 0.0180573 0)
(1.01563 0.0153908 0)
(1.01553 0.0131034 0)
(1.01525 0.0111668 0)
(1.01484 0.0095347 0)
(1.01433 0.00816617 0)
(1.0138 0.00700852 0)
(1.01327 0.00602256 0)
(1.01277 0.00517984 0)
(1.0123 0.00444603 1.08045e-33)
(1.01186 0.00379224 -1.08045e-33)
(1.01148 0.00320358 0)
(1.01114 0.00267052 0)
(1.01086 0.00218029 0)
(1.01064 0.00171963 0)
(1.01047 0.00128199 0)
(1.01036 0.000869049 0)
(1.01033 0.000484811 0)
(1.01035 0.000130496 0)
(1.01044 -0.000192108 0)
(1.01059 -0.00047712 0)
(1.01078 -0.000715422 0)
(1.01101 -0.000897799 0)
(1.01129 -0.00101879 0)
(1.01158 -0.00107762 0)
(1.01186 -0.00107582 0)
(1.01212 -0.00101662 0)
(1.01237 -0.000905566 0)
(1.01257 -0.000751937 0)
(1.01272 -0.000568672 0)
(1.01282 -0.000370143 0)
(1.01287 -0.000169349 0)
(1.01287 2.36236e-05 0)
(1.01282 0.000200996 0)
(1.01274 0.00035718 0)
(1.01262 0.000489635 0)
(1.0125 0.000595749 0)
(1.01235 0.000675342 0)
(1.0122 0.000730172 0)
(1.01204 0.000763268 0)
(1.01188 0.000778117 0)
(1.01173 0.000777871 0)
(1.01159 0.000765179 0)
(1.01145 0.000742337 0)
(1.01132 0.000711617 0)
(1.01119 0.00067528 0)
(1.01108 0.000635465 0)
(1.01098 0.000593945 0)
(1.01089 0.000552007 0)
(1.01081 0.000510422 0)
(1.01073 0.000469726 0)
(1.01066 0.000430276 0)
(1.0106 0.000392455 0)
(1.01054 0.000356618 0)
(1.0105 0.000323008 0)
(1.01045 0.000291816 0)
(1.01041 0.00026311 0)
(1.01038 0.000236824 0)
(1.01034 0.000212756 0)
(1.01032 0.000190704 0)
(1.01029 0.00017047 0)
(1.01027 0.000151959 0)
(1.01025 0.000135136 0)
(1.01023 0.000119962 0)
(1.01022 0.00010638 0)
(1.0102 9.42394e-05 0)
(1.01019 8.33666e-05 0)
(1.01018 7.35941e-05 0)
(1.01018 6.47891e-05 0)
(1.01017 5.68623e-05 0)
(1.01016 4.97394e-05 0)
(1.01016 4.33373e-05 0)
(1.01015 3.75988e-05 0)
(1.01014 3.24647e-05 0)
(1.01014 2.78915e-05 0)
(1.01014 2.38143e-05 0)
(1.01014 2.01505e-05 0)
(1.01013 1.67897e-05 0)
(1.01013 1.36061e-05 0)
(1.01013 1.05132e-05 0)
(1.01013 7.48053e-06 0)
(1.01013 4.47266e-06 0)
(1.01013 1.26031e-06 0)
(1.01011 -1.83947e-06 0)
(1.01013 -5.15162e-06 0)
(0.874134 0.0161485 0)
(1.03962 0.0240126 0)
(1.02483 0.0239039 0)
(1.00733 0.0219625 0)
(1.01013 0.0196219 0)
(1.01271 0.0172797 0)
(1.01335 0.0150886 0)
(1.01356 0.0131198 0)
(1.01355 0.0113925 0)
(1.01337 0.00988533 0)
(1.01308 0.00857956 0)
(1.01273 0.00745513 0)
(1.01236 0.00647901 0)
(1.01197 0.00561906 0)
(1.01158 0.00485298 0)
(1.01122 0.00416551 0)
(1.0109 0.00354168 0)
(1.01061 0.00296433 0)
(1.01036 0.00241888 0)
(1.01016 0.00189834 0)
(1.01002 0.00140186 0)
(1.00994 0.000929644 0)
(1.00993 0.000481159 0)
(1.00998 5.81872e-05 0)
(1.0101 -0.000331425 0)
(1.0103 -0.000676206 0)
(1.01055 -0.000963906 0)
(1.01085 -0.00118435 0)
(1.01119 -0.00133084 0)
(1.01155 -0.00139923 0)
(1.0119 -0.00138847 0)
(1.01222 -0.00130174 0)
(1.01252 -0.00114812 0)
(1.01276 -0.000942166 0)
(1.01294 -0.000701681 0)
(1.01304 -0.000444802 0)
(1.01309 -0.000187588 0)
(1.01308 5.71494e-05 0)
(1.01301 0.000277922 0)
(1.0129 0.000468904 0)
(1.01275 0.000626694 0)
(1.0126 0.000749568 0)
(1.01242 0.000838727 0)
(1.01224 0.000897523 0)
(1.01206 0.000930291 0)
(1.01188 0.000941318 0)
(1.01172 0.0009344 0)
(1.01156 0.000912849 0)
(1.01142 0.000879883 0)
(1.01128 0.000838687 0)
(1.01115 0.000792122 0)
(1.01104 0.000742513 0)
(1.01094 0.000691519 0)
(1.01085 0.000640317 0)
(1.01076 0.000589785 0)
(1.01069 0.000540786 0)
(1.01062 0.0004939 0)
(1.01056 0.000449443 0)
(1.01051 0.000407639 0)
(1.01046 0.000368647 0)
(1.01042 0.000332555 0)
(1.01038 0.000299369 0)
(1.01035 0.000268973 0)
(1.01032 0.00024119 0)
(1.01029 0.000215785 0)
(1.01027 0.000192574 0)
(1.01025 0.000171443 0)
(1.01024 0.000152322 0)
(1.01022 0.000135175 0)
(1.0102 0.000119817 0)
(1.01019 0.000106043 0)
(1.01018 9.36826e-05 0)
(1.01017 8.25847e-05 0)
(1.01017 7.26227e-05 0)
(1.01016 6.36899e-05 0)
(1.01015 5.56788e-05 0)
(1.01015 4.84929e-05 0)
(1.01014 4.2061e-05 0)
(1.01014 3.63245e-05 0)
(1.01014 3.1214e-05 0)
(1.01013 2.66374e-05 0)
(1.01013 2.24744e-05 0)
(1.01013 1.86628e-05 0)
(1.01013 1.50892e-05 0)
(1.01013 1.16397e-05 0)
(1.01013 8.26471e-06 0)
(1.01013 4.9446e-06 0)
(1.01013 1.46666e-06 0)
(1.01011 -1.84655e-06 0)
(1.01013 -5.25099e-06 0)
(0.873936 0.0140359 0)
(1.0387 0.0210767 0)
(1.02328 0.0212994 0)
(1.00542 0.0199471 0)
(1.00808 0.0181963 0)
(1.0107 0.016361 0)
(1.01147 0.0145793 0)
(1.01184 0.0129095 0)
(1.01202 0.0113886 0)
(1.01202 0.0100308 0)
(1.0119 0.00882737 0)
(1.0117 0.00775973 0)
(1.01144 0.00680773 0)
(1.01115 0.00595473 0)
(1.01085 0.00518624 0)
(1.01055 0.00448541 0)
(1.01028 0.00383391 0)
(1.01002 0.00321696 0)
(1.0098 0.00262595 0)
(1.00963 0.00205641 0)
(1.0095 0.00150465 0)
(1.00944 0.000967704 0)
(1.00946 0.00044643 0)
(1.00954 -5.17875e-05 0)
(1.0097 -0.000515527 0)
(1.00995 -0.000928939 0)
(1.01027 -0.00127711 0)
(1.01065 -0.00154597 0)
(1.01107 -0.00172344 0)
(1.01152 -0.00180066 0)
(1.01196 -0.00177464 0)
(1.01236 -0.00165035 0)
(1.01273 -0.00144125 0)
(1.01302 -0.0011675 0)
(1.01322 -0.000852833 0)
(1.01333 -0.000521002 0)
(1.01337 -0.000193355 0)
(1.01333 0.000112339 0)
(1.01323 0.000384541 0)
(1.01308 0.000613857 0)
(1.01291 0.000797377 0)
(1.01271 0.000935697 0)
(1.0125 0.00103206 0)
(1.01229 0.00109159 0)
(1.01208 0.00112005 0)
(1.01188 0.00112293 0)
(1.0117 0.00110517 0)
(1.01153 0.00107125 0)
(1.01137 0.00102536 0)
(1.01123 0.000971316 0)
(1.0111 0.000912381 0)
(1.01098 0.000851061 0)
(1.01088 0.000789089 0)
(1.01079 0.000727685 0)
(1.01071 0.000667772 0)
(1.01063 0.000610163 0)
(1.01057 0.000555428 0)
(1.01051 0.000503939 0)
(1.01046 0.000455914 0)
(1.01042 0.000411455 0)
(1.01038 0.000370509 0)
(1.01035 0.00033293 0)
(1.01032 0.000298524 0)
(1.01029 0.000267112 0)
(1.01027 0.000238483 0)
(1.01025 0.00021247 0)
(1.01023 0.000188941 0)
(1.01022 0.000167758 0)
(1.0102 0.00014876 0)
(1.01019 0.000131708 0)
(1.01018 0.000116401 0)
(1.01017 0.000102683 0)
(1.01016 9.04079e-05 0)
(1.01016 7.94263e-05 0)
(1.01015 6.95968e-05 0)
(1.01015 6.07866e-05 0)
(1.01014 5.28974e-05 0)
(1.01014 4.586e-05 0)
(1.01013 3.96014e-05 0)
(1.01013 3.40323e-05 0)
(1.01013 2.90289e-05 0)
(1.01013 2.44893e-05 0)
(1.01013 2.03116e-05 0)
(1.01012 1.63904e-05 0)
(1.01012 1.26495e-05 0)
(1.01012 9.02619e-06 0)
(1.01012 5.49415e-06 0)
(1.01013 1.86211e-06 0)
(1.0101 -1.55155e-06 0)
(1.01013 -4.99253e-06 0)
(0.873807 0.0123926 0)
(1.03807 0.0187305 0)
(1.02217 0.0191289 0)
(1.00402 0.0181665 0)
(1.00652 0.0168484 0)
(1.00909 0.0154053 0)
(1.0099 0.0139492 0)
(1.01037 0.0125474 0)
(1.01067 0.0112369 0)
(1.01081 0.0100333 0)
(1.01081 0.00893617 0)
(1.01072 0.0079394 0)
(1.01055 0.00703545 0)
(1.01034 0.00621339 0)
(1.01011 0.00545807 2.68006e-34)
(1.00987 0.00475293 -2.68006e-34)
(1.00963 0.00408386 0)
(1.0094 0.00344078 0)
(1.0092 0.00281587 0)
(1.00904 0.00220166 0)
(1.00893 0.00159198 0)
(1.00888 0.000984827 0)
(1.00891 0.000384632 0)
(1.00902 -0.0001977 0)
(1.00923 -0.00074778 0)
(1.00954 -0.00124591 0)
(1.00993 -0.00167092 0)
(1.0104 -0.0020012 0)
(1.01093 -0.00221675 0)
(1.0115 -0.00230323 0)
(1.01205 -0.00225589 0)
(1.01256 -0.00208152 0)
(1.013 -0.00179862 0)
(1.01335 -0.00143475 0)
(1.01358 -0.00102211 0)
(1.0137 -0.000593118 0)
(1.01372 -0.000176856 0)
(1.01365 0.000202916 0)
(1.01351 0.000532142 0)
(1.01331 0.000802338 0)
(1.01308 0.00101161 0)
(1.01283 0.00116294 0)
(1.01258 0.00126239 0)
(1.01233 0.00131745 0)
(1.01209 0.00133591 0)
(1.01187 0.0013251 0)
(1.01167 0.00129161 0)
(1.01148 0.00124123 0)
(1.01132 0.00117899 0)
(1.01116 0.00110921 0)
(1.01103 0.00103547 0)
(1.01091 0.000960475 0)
(1.01081 0.000886077 0)
(1.01072 0.000813475 0)
(1.01064 0.000743505 0)
(1.01057 0.000676767 0)
(1.01051 0.000613821 0)
(1.01046 0.000555081 0)
(1.01041 0.000500758 0)
(1.01038 0.000450831 0)
(1.01034 0.000405099 0)
(1.01031 0.000363256 0)
(1.01028 0.000325011 0)
(1.01026 0.000290135 0)
(1.01024 0.000258483 0)
(1.01022 0.000229907 0)
(1.01021 0.000204221 0)
(1.01019 0.000181171 0)
(1.01018 0.00016045 0)
(1.01017 0.000141847 0)
(1.01016 0.000125177 0)
(1.01016 0.000110265 0)
(1.01015 9.69473e-05 0)
(1.01015 8.50571e-05 0)
(1.01014 7.44387e-05 0)
(1.01014 6.49543e-05 0)
(1.01013 5.64822e-05 0)
(1.01013 4.89419e-05 0)
(1.01013 4.22361e-05 0)
(1.01013 3.62676e-05 0)
(1.01012 3.0927e-05 0)
(1.01012 2.60874e-05 0)
(1.01012 2.16202e-05 0)
(1.01012 1.74431e-05 0)
(1.01012 1.34951e-05 0)
(1.01012 9.72237e-06 0)
(1.01012 6.09276e-06 0)
(1.01012 2.41044e-06 0)
(1.0101 -1.03203e-06 0)
(1.01013 -4.46425e-06 0)
(0.873712 0.0110741 0)
(1.03762 0.016812 0)
(1.02136 0.0173074 0)
(1.00296 0.0166117 0)
(1.0053 0.0155967 0)
(1.0078 0.0144555 0)
(1.00861 0.0132733 0)
(1.00912 0.0121054 0)
(1.0095 0.0109835 0)
(1.00972 0.00992516 0)
(1.00981 0.00893949 0)
(1.0098 0.0080287 0)
(1.00971 0.00718836 0)
(1.00957 0.00640832 0)
(1.00939 0.00567587 2.67331e-34)
(1.00918 0.00497898 -2.67331e-34)
(1.00896 0.00430721 0)
(1.00875 0.00365047 0)
(1.00856 0.00299828 0)
(1.0084 0.00234098 0)
(1.00829 0.0016724 0)
(1.00824 0.000991952 0)
(1.00828 0.000305353 0)
(1.00841 -0.000375515 0)
(1.00866 -0.00103132 0)
(1.00903 -0.00163701 0)
(1.00952 -0.00216157 0)
(1.0101 -0.0025719 0)
(1.01077 -0.00283751 0)
(1.01148 -0.00293657 0)
(1.01218 -0.00286104 0)
(1.01282 -0.00261951 0)
(1.01337 -0.00223674 0)
(1.01379 -0.00175091 0)
(1.01406 -0.0012076 0)
(1.01418 -0.000652261 0)
(1.01417 -0.000124405 0)
(1.01404 0.000345229 0)
(1.01383 0.000737506 0)
(1.01356 0.00105008 0)
(1.01327 0.0012826 0)
(1.01296 0.0014417 0)
(1.01266 0.0015373 0)
(1.01236 0.00158022 0)
(1.01209 0.00158111 0)
(1.01184 0.00154975 0)
(1.01162 0.00149465 0)
(1.01142 0.0014229 0)
(1.01124 0.00134028 0)
(1.01108 0.00125154 0)
(1.01095 0.00116043 0)
(1.01083 0.00106975 0)
(1.01073 0.000981353 0)
(1.01065 0.000896378 0)
(1.01057 0.000815519 0)
(1.0105 0.000739249 0)
(1.01045 0.000667993 0)
(1.0104 0.000602057 0)
(1.01036 0.000541517 0)
(1.01033 0.000486198 0)
(1.01029 0.000435737 0)
(1.01027 0.000389727 0)
(1.01024 0.000347834 0)
(1.01022 0.000309823 0)
(1.01021 0.000275496 0)
(1.01019 0.000244644 0)
(1.01018 0.000216978 0)
(1.01017 0.000192174 0)
(1.01016 0.000169935 0)
(1.01015 0.000150019 0)
(1.01015 0.000132202 0)
(1.01014 0.000116279 0)
(1.01014 0.000102069 0)
(1.01013 8.94043e-05 0)
(1.01013 7.81243e-05 0)
(1.01013 6.80856e-05 0)
(1.01013 5.91533e-05 0)
(1.01012 5.12143e-05 0)
(1.01012 4.41594e-05 0)
(1.01012 3.78764e-05 0)
(1.01012 3.2284e-05 0)
(1.01012 2.72224e-05 0)
(1.01012 2.25632e-05 0)
(1.01012 1.82302e-05 0)
(1.01012 1.41749e-05 0)
(1.01012 1.03474e-05 0)
(1.01011 6.69756e-06 0)
(1.01012 3.0355e-06 0)
(1.01009 -3.68469e-07 0)
(1.01012 -3.74211e-06 0)
(0.873643 0.00998911 0)
(1.0373 0.0152224 0)
(1.02076 0.0157553 0)
(1.00214 0.0152453 0)
(1.00435 0.0144571 0)
(1.00676 0.0135516 0)
(1.00755 0.0125917 0)
(1.00808 0.0116189 0)
(1.00849 0.0106627 0)
(1.00877 0.00974324 0)
(1.00891 0.00887229 0)
(1.00896 0.00805311 0)
(1.00893 0.00728218 0)
(1.00883 0.00655227 0)
(1.00868 0.00585483 -6.66761e-35)
(1.0085 0.00518058 6.66761e-35)
(1.0083 0.0045189 0)
(1.00809 0.00385765 0)
(1.00789 0.00318433 0)
(1.00771 0.00248824 0)
(1.00758 0.00176244 0)
(1.00751 0.00100517 0)
(1.00754 0.000221022 0)
(1.00769 -0.000577559 0)
(1.00796 -0.00136677 0)
(1.00841 -0.00211165 0)
(1.009 -0.00276794 0)
(1.00973 -0.00328661 0)
(1.01057 -0.00362217 0)
(1.01147 -0.00374126 0)
(1.01236 -0.00362968 0)
(1.01318 -0.00329684 0)
(1.01387 -0.00277653 0)
(1.01438 -0.00212362 0)
(1.01468 -0.00140452 0)
(1.01479 -0.00068438 0)
(1.01472 -1.63934e-05 0)
(1.01452 0.000557162 0)
(1.01421 0.00102229 0)
(1.01385 0.00137647 0)
(1.01347 0.00162598 0)
(1.01309 0.00178363 0)
(1.01272 0.00186482 0)
(1.01237 0.00188501 0)
(1.01206 0.00185856 0)
(1.01178 0.00179813 0)
(1.01154 0.00171426 0)
(1.01133 0.00161535 0)
(1.01114 0.00150784 0)
(1.01098 0.00139665 0)
(1.01085 0.00128553 0)
(1.01074 0.00117717 0)
(1.01064 0.00107333 0)
(1.01056 0.000974988 0)
(1.01049 0.000882649 0)
(1.01043 0.000796591 0)
(1.01038 0.000716995 0)
(1.01033 0.000643939 0)
(1.0103 0.000577309 0)
(1.01027 0.000516752 0)
(1.01024 0.000461765 0)
(1.01022 0.000411867 0)
(1.0102 0.000366671 0)
(1.01019 0.000325868 0)
(1.01017 0.000289179 0)
(1.01016 0.000256292 0)
(1.01016 0.000226873 0)
(1.01015 0.00020058 0)
(1.01014 0.00017708 0)
(1.01013 0.000156078 0)
(1.01013 0.000137316 0)
(1.01013 0.000120568 0)
(1.01012 0.000105644 0)
(1.01012 9.23699e-05 0)
(1.01012 8.05752e-05 0)
(1.01012 7.01089e-05 0)
(1.01012 6.08398e-05 0)
(1.01012 5.26341e-05 0)
(1.01011 4.53637e-05 0)
(1.01011 3.88991e-05 0)
(1.01011 3.31125e-05 0)
(1.01011 2.78854e-05 0)
(1.01011 2.31119e-05 0)
(1.01011 1.87167e-05 0)
(1.01011 1.46478e-05 0)
(1.01011 1.08412e-05 0)
(1.01011 7.23527e-06 0)
(1.01012 3.6681e-06 0)
(1.01009 3.65752e-07 0)
(1.01012 -2.89339e-06 0)
(0.873593 0.00907546 0)
(1.03705 0.0138713 0)
(1.0203 0.0144167 0)
(1.00151 0.0140423 0)
(1.00359 0.0134272 0)
(1.00593 0.0127041 0)
(1.00668 0.0119217 0)
(1.00719 0.0111136 0)
(1.00763 0.0103061 0)
(1.00793 0.00951741 0)
(1.00812 0.00875744 0)
(1.00821 0.00802954 0)
(1.00821 0.00733248 0)
(1.00814 0.00666211 0)
(1.00802 0.00601184 0)
(1.00784 0.00537236 0)
(1.00764 0.00473162 0)
(1.00742 0.00407581 0)
(1.00719 0.00339078 0)
(1.00698 0.00266359 0)
(1.0068 0.00188384 0)
(1.00669 0.00104547 0)
(1.00669 0.000149661 0)
(1.00682 -0.00079138 0)
(1.00712 -0.0017498 0)
(1.00763 -0.00267783 0)
(1.00834 -0.00351273 0)
(1.00925 -0.0041831 0)
(1.01031 -0.00462062 0)
(1.01147 -0.00477329 0)
(1.01262 -0.00461602 0)
(1.01367 -0.0041577 0)
(1.01455 -0.0034453 0)
(1.01517 -0.0025603 0)
(1.0155 -0.00160212 0)
(1.01557 -0.000666164 0)
(1.01541 0.00017162 0)
(1.01508 0.000869977 0)
(1.01465 0.00141442 0)
(1.01417 0.00180545 0)
(1.01367 0.00206019 0)
(1.0132 0.00220155 0)
(1.01276 0.00225304 0)
(1.01236 0.0022363 0)
(1.012 0.00217011 0)
(1.01169 0.00207019 0)
(1.01143 0.00194914 0)
(1.01121 0.00181649 0)
(1.01102 0.00167914 0)
(1.01086 0.00154193 0)
(1.01073 0.00140827 0)
(1.01062 0.00128048 0)
(1.01053 0.00115999 0)
(1.01046 0.00104752 0)
(1.01039 0.000943338 0)
(1.01034 0.000847424 0)
(1.0103 0.000759613 0)
(1.01026 0.000679651 0)
(1.01023 0.000607171 0)
(1.01021 0.000541661 0)
(1.01019 0.000482523 0)
(1.01017 0.000429172 0)
(1.01016 0.000381101 0)
(1.01015 0.000337883 0)
(1.01014 0.000299143 0)
(1.01013 0.000264529 0)
(1.01013 0.000233675 0)
(1.01012 0.00020619 0)
(1.01012 0.000181691 0)
(1.01011 0.000159844 0)
(1.01011 0.000140363 0)
(1.01011 0.000123006 0)
(1.01011 0.000107567 0)
(1.01011 9.386e-05 0)
(1.01011 8.17144e-05 0)
(1.01011 7.09775e-05 0)
(1.01011 6.15016e-05 0)
(1.01011 5.31462e-05 0)
(1.01011 4.57669e-05 0)
(1.01011 3.92153e-05 0)
(1.01011 3.33375e-05 0)
(1.01011 2.80419e-05 0)
(1.01011 2.32451e-05 0)
(1.01011 1.88735e-05 0)
(1.01011 1.48643e-05 0)
(1.01011 1.11468e-05 0)
(1.01011 7.65802e-06 0)
(1.01011 4.25775e-06 0)
(1.01009 1.11494e-06 0)
(1.01012 -1.97675e-06 0)
(0.873555 0.00829155 0)
(1.03685 0.0127048 0)
(1.01994 0.0132516 0)
(1.00102 0.0129765 0)
(1.00299 0.0124923 0)
(1.00526 0.0119123 0)
(1.00596 0.0112758 0)
(1.00646 0.0106098 0)
(1.00689 0.00993485 0)
(1.00722 0.00926551 0)
(1.00743 0.00861036 0)
(1.00754 0.00797354 0)
(1.00756 0.00735551 0)
(1.00751 0.00675332 0)
(1.0074 0.00616038 -1.06257e-33)
(1.00722 0.00556656 1.06257e-33)
(1.007 0.00495874 0)
(1.00675 0.00432162 0)
(1.00647 0.00363845 0)
(1.00621 0.00289167 0)
(1.00596 0.00206417 0)
(1.00578 0.0011422 0)
(1.00571 0.000120124 0)
(1.00579 -0.000992581 0)
(1.00608 -0.00216706 0)
(1.00664 -0.00334015 0)
(1.00749 -0.00442314 0)
(1.00862 -0.00531149 0)
(1.00998 -0.00590133 0)
(1.01148 -0.00611078 0)
(1.01298 -0.0058966 0)
(1.01435 -0.00526461 0)
(1.01547 -0.00427971 0)
(1.01622 -0.00306628 0)
(1.01658 -0.00177746 0)
(1.01656 -0.000553903 0)
(1.01626 0.000499134 0)
(1.01576 0.00133799 0)
(1.01515 0.00195576 0)
(1.0145 0.00236809 0)
(1.01386 0.0026069 0)
(1.01328 0.00270911 0)
(1.01275 0.0027093 0)
(1.01229 0.00263685 0)
(1.01189 0.00251551 0)
(1.01156 0.00236391 0)
(1.01129 0.00219625 0)
(1.01106 0.00202282 0)
(1.01087 0.00185054 0)
(1.01071 0.00168382 0)
(1.01059 0.00152531 0)
(1.01049 0.00137666 0)
(1.01041 0.00123872 0)
(1.01034 0.0011118 0)